# vtk DataFile Version 3.0
CELLCENTER
ASCII
DATASET STRUCTURED_GRID
DIMENSIONS  20 100   1
POINTS      2000 float
  -0.0950   -0.4950    0.0000
  -0.0850   -0.4950    0.0000
  -0.0750   -0.4950    0.0000
  -0.0650   -0.4950    0.0000
  -0.0550   -0.4950    0.0000
  -0.0450   -0.4950    0.0000
  -0.0350   -0.4950    0.0000
  -0.0250   -0.4950    0.0000
  -0.0150   -0.4950    0.0000
  -0.0050   -0.4950    0.0000
   0.0050   -0.4950    0.0000
   0.0150   -0.4950    0.0000
   0.0250   -0.4950    0.0000
   0.0350   -0.4950    0.0000
   0.0450   -0.4950    0.0000
   0.0550   -0.4950    0.0000
   0.0650   -0.4950    0.0000
   0.0750   -0.4950    0.0000
   0.0850   -0.4950    0.0000
   0.0950   -0.4950    0.0000
  -0.0950   -0.4850    0.0000
  -0.0850   -0.4850    0.0000
  -0.0750   -0.4850    0.0000
  -0.0650   -0.4850    0.0000
  -0.0550   -0.4850    0.0000
  -0.0450   -0.4850    0.0000
  -0.0350   -0.4850    0.0000
  -0.0250   -0.4850    0.0000
  -0.0150   -0.4850    0.0000
  -0.0050   -0.4850    0.0000
   0.0050   -0.4850    0.0000
   0.0150   -0.4850    0.0000
   0.0250   -0.4850    0.0000
   0.0350   -0.4850    0.0000
   0.0450   -0.4850    0.0000
   0.0550   -0.4850    0.0000
   0.0650   -0.4850    0.0000
   0.0750   -0.4850    0.0000
   0.0850   -0.4850    0.0000
   0.0950   -0.4850    0.0000
  -0.0950   -0.4750    0.0000
  -0.0850   -0.4750    0.0000
  -0.0750   -0.4750    0.0000
  -0.0650   -0.4750    0.0000
  -0.0550   -0.4750    0.0000
  -0.0450   -0.4750    0.0000
  -0.0350   -0.4750    0.0000
  -0.0250   -0.4750    0.0000
  -0.0150   -0.4750    0.0000
  -0.0050   -0.4750    0.0000
   0.0050   -0.4750    0.0000
   0.0150   -0.4750    0.0000
   0.0250   -0.4750    0.0000
   0.0350   -0.4750    0.0000
   0.0450   -0.4750    0.0000
   0.0550   -0.4750    0.0000
   0.0650   -0.4750    0.0000
   0.0750   -0.4750    0.0000
   0.0850   -0.4750    0.0000
   0.0950   -0.4750    0.0000
  -0.0950   -0.4650    0.0000
  -0.0850   -0.4650    0.0000
  -0.0750   -0.4650    0.0000
  -0.0650   -0.4650    0.0000
  -0.0550   -0.4650    0.0000
  -0.0450   -0.4650    0.0000
  -0.0350   -0.4650    0.0000
  -0.0250   -0.4650    0.0000
  -0.0150   -0.4650    0.0000
  -0.0050   -0.4650    0.0000
   0.0050   -0.4650    0.0000
   0.0150   -0.4650    0.0000
   0.0250   -0.4650    0.0000
   0.0350   -0.4650    0.0000
   0.0450   -0.4650    0.0000
   0.0550   -0.4650    0.0000
   0.0650   -0.4650    0.0000
   0.0750   -0.4650    0.0000
   0.0850   -0.4650    0.0000
   0.0950   -0.4650    0.0000
  -0.0950   -0.4550    0.0000
  -0.0850   -0.4550    0.0000
  -0.0750   -0.4550    0.0000
  -0.0650   -0.4550    0.0000
  -0.0550   -0.4550    0.0000
  -0.0450   -0.4550    0.0000
  -0.0350   -0.4550    0.0000
  -0.0250   -0.4550    0.0000
  -0.0150   -0.4550    0.0000
  -0.0050   -0.4550    0.0000
   0.0050   -0.4550    0.0000
   0.0150   -0.4550    0.0000
   0.0250   -0.4550    0.0000
   0.0350   -0.4550    0.0000
   0.0450   -0.4550    0.0000
   0.0550   -0.4550    0.0000
   0.0650   -0.4550    0.0000
   0.0750   -0.4550    0.0000
   0.0850   -0.4550    0.0000
   0.0950   -0.4550    0.0000
  -0.0950   -0.4450    0.0000
  -0.0850   -0.4450    0.0000
  -0.0750   -0.4450    0.0000
  -0.0650   -0.4450    0.0000
  -0.0550   -0.4450    0.0000
  -0.0450   -0.4450    0.0000
  -0.0350   -0.4450    0.0000
  -0.0250   -0.4450    0.0000
  -0.0150   -0.4450    0.0000
  -0.0050   -0.4450    0.0000
   0.0050   -0.4450    0.0000
   0.0150   -0.4450    0.0000
   0.0250   -0.4450    0.0000
   0.0350   -0.4450    0.0000
   0.0450   -0.4450    0.0000
   0.0550   -0.4450    0.0000
   0.0650   -0.4450    0.0000
   0.0750   -0.4450    0.0000
   0.0850   -0.4450    0.0000
   0.0950   -0.4450    0.0000
  -0.0950   -0.4350    0.0000
  -0.0850   -0.4350    0.0000
  -0.0750   -0.4350    0.0000
  -0.0650   -0.4350    0.0000
  -0.0550   -0.4350    0.0000
  -0.0450   -0.4350    0.0000
  -0.0350   -0.4350    0.0000
  -0.0250   -0.4350    0.0000
  -0.0150   -0.4350    0.0000
  -0.0050   -0.4350    0.0000
   0.0050   -0.4350    0.0000
   0.0150   -0.4350    0.0000
   0.0250   -0.4350    0.0000
   0.0350   -0.4350    0.0000
   0.0450   -0.4350    0.0000
   0.0550   -0.4350    0.0000
   0.0650   -0.4350    0.0000
   0.0750   -0.4350    0.0000
   0.0850   -0.4350    0.0000
   0.0950   -0.4350    0.0000
  -0.0950   -0.4250    0.0000
  -0.0850   -0.4250    0.0000
  -0.0750   -0.4250    0.0000
  -0.0650   -0.4250    0.0000
  -0.0550   -0.4250    0.0000
  -0.0450   -0.4250    0.0000
  -0.0350   -0.4250    0.0000
  -0.0250   -0.4250    0.0000
  -0.0150   -0.4250    0.0000
  -0.0050   -0.4250    0.0000
   0.0050   -0.4250    0.0000
   0.0150   -0.4250    0.0000
   0.0250   -0.4250    0.0000
   0.0350   -0.4250    0.0000
   0.0450   -0.4250    0.0000
   0.0550   -0.4250    0.0000
   0.0650   -0.4250    0.0000
   0.0750   -0.4250    0.0000
   0.0850   -0.4250    0.0000
   0.0950   -0.4250    0.0000
  -0.0950   -0.4150    0.0000
  -0.0850   -0.4150    0.0000
  -0.0750   -0.4150    0.0000
  -0.0650   -0.4150    0.0000
  -0.0550   -0.4150    0.0000
  -0.0450   -0.4150    0.0000
  -0.0350   -0.4150    0.0000
  -0.0250   -0.4150    0.0000
  -0.0150   -0.4150    0.0000
  -0.0050   -0.4150    0.0000
   0.0050   -0.4150    0.0000
   0.0150   -0.4150    0.0000
   0.0250   -0.4150    0.0000
   0.0350   -0.4150    0.0000
   0.0450   -0.4150    0.0000
   0.0550   -0.4150    0.0000
   0.0650   -0.4150    0.0000
   0.0750   -0.4150    0.0000
   0.0850   -0.4150    0.0000
   0.0950   -0.4150    0.0000
  -0.0950   -0.4050    0.0000
  -0.0850   -0.4050    0.0000
  -0.0750   -0.4050    0.0000
  -0.0650   -0.4050    0.0000
  -0.0550   -0.4050    0.0000
  -0.0450   -0.4050    0.0000
  -0.0350   -0.4050    0.0000
  -0.0250   -0.4050    0.0000
  -0.0150   -0.4050    0.0000
  -0.0050   -0.4050    0.0000
   0.0050   -0.4050    0.0000
   0.0150   -0.4050    0.0000
   0.0250   -0.4050    0.0000
   0.0350   -0.4050    0.0000
   0.0450   -0.4050    0.0000
   0.0550   -0.4050    0.0000
   0.0650   -0.4050    0.0000
   0.0750   -0.4050    0.0000
   0.0850   -0.4050    0.0000
   0.0950   -0.4050    0.0000
  -0.0950   -0.3950    0.0000
  -0.0850   -0.3950    0.0000
  -0.0750   -0.3950    0.0000
  -0.0650   -0.3950    0.0000
  -0.0550   -0.3950    0.0000
  -0.0450   -0.3950    0.0000
  -0.0350   -0.3950    0.0000
  -0.0250   -0.3950    0.0000
  -0.0150   -0.3950    0.0000
  -0.0050   -0.3950    0.0000
   0.0050   -0.3950    0.0000
   0.0150   -0.3950    0.0000
   0.0250   -0.3950    0.0000
   0.0350   -0.3950    0.0000
   0.0450   -0.3950    0.0000
   0.0550   -0.3950    0.0000
   0.0650   -0.3950    0.0000
   0.0750   -0.3950    0.0000
   0.0850   -0.3950    0.0000
   0.0950   -0.3950    0.0000
  -0.0950   -0.3850    0.0000
  -0.0850   -0.3850    0.0000
  -0.0750   -0.3850    0.0000
  -0.0650   -0.3850    0.0000
  -0.0550   -0.3850    0.0000
  -0.0450   -0.3850    0.0000
  -0.0350   -0.3850    0.0000
  -0.0250   -0.3850    0.0000
  -0.0150   -0.3850    0.0000
  -0.0050   -0.3850    0.0000
   0.0050   -0.3850    0.0000
   0.0150   -0.3850    0.0000
   0.0250   -0.3850    0.0000
   0.0350   -0.3850    0.0000
   0.0450   -0.3850    0.0000
   0.0550   -0.3850    0.0000
   0.0650   -0.3850    0.0000
   0.0750   -0.3850    0.0000
   0.0850   -0.3850    0.0000
   0.0950   -0.3850    0.0000
  -0.0950   -0.3750    0.0000
  -0.0850   -0.3750    0.0000
  -0.0750   -0.3750    0.0000
  -0.0650   -0.3750    0.0000
  -0.0550   -0.3750    0.0000
  -0.0450   -0.3750    0.0000
  -0.0350   -0.3750    0.0000
  -0.0250   -0.3750    0.0000
  -0.0150   -0.3750    0.0000
  -0.0050   -0.3750    0.0000
   0.0050   -0.3750    0.0000
   0.0150   -0.3750    0.0000
   0.0250   -0.3750    0.0000
   0.0350   -0.3750    0.0000
   0.0450   -0.3750    0.0000
   0.0550   -0.3750    0.0000
   0.0650   -0.3750    0.0000
   0.0750   -0.3750    0.0000
   0.0850   -0.3750    0.0000
   0.0950   -0.3750    0.0000
  -0.0950   -0.3650    0.0000
  -0.0850   -0.3650    0.0000
  -0.0750   -0.3650    0.0000
  -0.0650   -0.3650    0.0000
  -0.0550   -0.3650    0.0000
  -0.0450   -0.3650    0.0000
  -0.0350   -0.3650    0.0000
  -0.0250   -0.3650    0.0000
  -0.0150   -0.3650    0.0000
  -0.0050   -0.3650    0.0000
   0.0050   -0.3650    0.0000
   0.0150   -0.3650    0.0000
   0.0250   -0.3650    0.0000
   0.0350   -0.3650    0.0000
   0.0450   -0.3650    0.0000
   0.0550   -0.3650    0.0000
   0.0650   -0.3650    0.0000
   0.0750   -0.3650    0.0000
   0.0850   -0.3650    0.0000
   0.0950   -0.3650    0.0000
  -0.0950   -0.3550    0.0000
  -0.0850   -0.3550    0.0000
  -0.0750   -0.3550    0.0000
  -0.0650   -0.3550    0.0000
  -0.0550   -0.3550    0.0000
  -0.0450   -0.3550    0.0000
  -0.0350   -0.3550    0.0000
  -0.0250   -0.3550    0.0000
  -0.0150   -0.3550    0.0000
  -0.0050   -0.3550    0.0000
   0.0050   -0.3550    0.0000
   0.0150   -0.3550    0.0000
   0.0250   -0.3550    0.0000
   0.0350   -0.3550    0.0000
   0.0450   -0.3550    0.0000
   0.0550   -0.3550    0.0000
   0.0650   -0.3550    0.0000
   0.0750   -0.3550    0.0000
   0.0850   -0.3550    0.0000
   0.0950   -0.3550    0.0000
  -0.0950   -0.3450    0.0000
  -0.0850   -0.3450    0.0000
  -0.0750   -0.3450    0.0000
  -0.0650   -0.3450    0.0000
  -0.0550   -0.3450    0.0000
  -0.0450   -0.3450    0.0000
  -0.0350   -0.3450    0.0000
  -0.0250   -0.3450    0.0000
  -0.0150   -0.3450    0.0000
  -0.0050   -0.3450    0.0000
   0.0050   -0.3450    0.0000
   0.0150   -0.3450    0.0000
   0.0250   -0.3450    0.0000
   0.0350   -0.3450    0.0000
   0.0450   -0.3450    0.0000
   0.0550   -0.3450    0.0000
   0.0650   -0.3450    0.0000
   0.0750   -0.3450    0.0000
   0.0850   -0.3450    0.0000
   0.0950   -0.3450    0.0000
  -0.0950   -0.3350    0.0000
  -0.0850   -0.3350    0.0000
  -0.0750   -0.3350    0.0000
  -0.0650   -0.3350    0.0000
  -0.0550   -0.3350    0.0000
  -0.0450   -0.3350    0.0000
  -0.0350   -0.3350    0.0000
  -0.0250   -0.3350    0.0000
  -0.0150   -0.3350    0.0000
[...]
POINT_DATA     2000
SCALARS rho float
LOOKUP_TABLE default
 1.0000000
 1.0000000
 1.0000000
 1.0000000
 1.0000000
 1.0000000
 1.0000000
 1.0000000
 1.0000000
 1.0000000
 1.0000000
 1.0000000
 1.0000000
 1.0000000
 1.0000000
 1.0000000
 1.0000000
 1.0000000
 1.0000000
 1.0000000
 1.0000000
 1.0000000
 1.0000000
 1.0000000
 1.0000000
 1.0000000
 1.0000000
 1.0000000
 1.0000000
 1.0000000
 1.0000000
 1.0000000
 1.0000000
 1.0000000
 1.0000000
 1.0000000
 1.0000000
 1.0000000
 1.0000000
 1.0000000
 1.0000000
 1.0000000
 1.0000000
 1.0000000
 1.0000000
 1.0000000
 1.0000000
 1.0000000
 1.0000000
 1.0000000
 1.0000000
 1.0000000
 1.0000000
 1.0000000
 1.0000000
 1.0000000
 1.0000000
 1.0000000
 1.0000000
 1.0000000
 1.0000000
 1.0000000
 1.0000000
 1.0000000
 1.0000000
 1.0000000
 1.0000000
 1.0000000
 1.0000000
 1.0000000
 1.0000000
 1.0000000
 1.0000000
 1.0000000
 1.0000000
 1.0000000
 1.0000000
 1.0000000
 1.0000000
 1.0000000
 1.0000000
 1.0000000
 1.0000000
 1.0000000
 1.0000000
 1.0000000
 1.0000000
 1.0000000
 1.0000000
 1.0000000
 1.0000000
 1.0000000
 1.0000000
 1.0000000
 1.0000000
 1.0000000
 1.0000000
 1.0000000
 1.0000000
 1.0000000
 1.0000000
 1.0000000
 1.0000000
 1.0000000
 1.0000000
 1.0000000
 1.0000000
 1.0000000
 1.0000000
 1.0000000
 1.0000000
 1.0000000
 1.0000000
 1.0000000
 1.0000000
 1.0000000
 1.0000000
 1.0000000
 1.0000000
 1.0000000
 1.0000000
 1.0000000
 1.0000000
 1.0000000
 1.0000000
 1.0000000
 1.0000000
 1.0000000
 1.0000000
 1.0000000
 1.0000000
 1.0000000
 1.0000000
 1.0000000
 1.0000000
 1.0000000
 1.0000000
 1.0000000
 1.0000000
 1.0000000
 1.0000000
 1.0000000
 1.0000000
 1.0000000
 1.0000000
 1.0000000
 1.0000000
 1.0000000
 1.0000000
 1.0000000
 1.0000000
 1.0000000
 1.0000000
 1.0000000
 1.0000000
 1.0000000
 1.0000000
 1.0000000
 1.0000000
 1.0000000
 1.0000000
 1.0000000
 1.0000000
 1.0000000
 1.0000000
 1.0000000
 1.0000000
 1.0000000
 1.0000000
 1.0000000
 1.0000000
 1.0000000
 1.0000000
 1.0000000
 1.0000000
 1.0000000
 1.0000000
 1.0000000
 1.0000000
 1.0000000
 1.0000000
 1.0000000
 1.0000000
 1.0000000
 1.0000000
 1.0000000
 1.0000000
 1.0000000
 1.0000000
 1.0000000
 1.0000000
 1.0000000
 1.0000000
 1.0000000
 1.0000000
 1.0000000
 1.0000000
 1.0000000
 1.0000000
 1.0000000
 1.0000000
 1.0000000
 1.0000000
 1.0000000
 1.0000000
 1.0000000
 1.0000000
 1.0000000
 1.0000000
 1.0000000
 1.0000000
 1.0000000
 1.0000000
 1.0000000
 1.0000000
 1.0000000
 1.0000000
 1.0000000
 1.0000000
 1.0000000
 1.0000000
 1.0000000
 1.0000000
 1.0000000
 1.0000000
 1.0000000
 1.0000000
 1.0000000
 1.0000000
 1.0000000
 1.0000000
 1.0000000
 1.0000000
 1.0000000
 1.0000000
 1.0000000
 1.0000000
 1.0000000
 1.0000000
 1.0000000
 1.0000000
 1.0000000
 1.0000000
 1.0000000
 1.0000000
 1.0000000
 1.0000000
 1.0000000
 1.0000000
 1.0000000
 1.0000000
 1.0000000
 1.0000000
 1.0000000
 1.0000000
 1.0000000
 1.0000000
 1.0000000
 1.0000000
 1.0000000
 1.0000000
 1.0000000
 1.0000000
 1.0000000
 1.0000000
 1.0000000
 1.0000000
 1.0000000
 1.0000000
 1.0000000
 1.0000000
 1.0000000
 1.0000000
 1.0000000
 1.0000000
 1.0000000
 1.0000000
 1.0000000
 1.0000000
 1.0000000
 1.0000000
 1.0000000
 1.0000000
 1.0000000
 1.0000000
 1.0000000
 1.0000000
 1.0000000
 1.0000000
 1.0000000
 1.0000000
 1.0000000
 1.0000000
 1.0000000
 1.0000000
 1.0000000
 1.0000000
 1.0000000
 1.0000000
 1.0000000
 1.0000000
 1.0000000
 1.0000000
 1.0000000
 1.0000000
 1.0000000
 1.0000000
 1.0000000
 1.0000000
 1.0000000
 1.0000000
 1.0000000
 1.0000000
 1.0000000
 1.0000000
 1.0000000
 1.0000000
 1.0000000
 1.0000000
 1.0000000
 1.0000000
 1.0000000
 1.0000000
 1.0000000
 1.0000000
 1.0000000
 1.0000000
 1.0000000
 1.0000000
 1.0000000
 1.0000000
 1.0000000
 1.0000000
 1.0000000
 1.0000000
 1.0000000
 1.0000000
 1.0000000
 1.0000000
 1.0000000
 1.0000000
 1.0000000
 1.0000000
 1.0000000
 1.0000000
 1.0000000
 1.0000000
 1.0000000
 1.0000000
 1.0000000
 1.0000000
 1.0000000
 1.0000000
 1.0000000
 1.0000000
 1.0000000
 1.0000000
 1.0000000
 1.0000000
 1.0000000
 1.0000000
 1.0000000
 1.0000000
 1.0000000
 1.0000000
 1.0000000
 1.0000000
 1.0000000
 1.0000000
 1.0000000
 1.0000000
 1.0000000
 1.0000000
 1.0000000
 1.0000000
 1.0000000
 1.0000000
 1.0000000
 1.0000000
 1.0000000
 1.0000000
 1.0000000
 1.0000000
 1.0000000
 1.0000000
 1.0000000
 1.0000000
 1.0000000
 1.0000000
 1.0000000
 1.0000000
 1.0000000
 1.0000000
 1.0000000
 1.0000000
 1.0000000
 1.0000000
 1.0000000
 1.0000000
 1.0000000
 1.0000000
 1.0000000
 1.0000000
 1.0000000
 1.0000000
 1.0000000
 1.0000000
 1.0000000
 1.0000000
 1.0000000
 1.0000000
 1.0000000
 1.0000000
 1.0000000
 1.0000000
 1.0000000
 1.0000000
 1.0000000
 1.0000000
 1.0000000
 1.0000000
 1.0000000
 1.0000000
 1.0000000
 1.0000000
 1.0000000
 1.0000000
 1.0000000
 1.0000000
 1.0000000
 1.0000000
 1.0000000
 1.0000000
 1.0000000
 1.0000000
 1.0000000
 1.0000000
 1.0000000
 1.0000000
 1.0000000
 1.0000000
 1.0000000
 1.0000000
 1.0000000
 1.0000000
 1.0000000
 1.0000000
 1.0000000
 1.0000000
 1.0000000
 1.0000000
 1.0000000
 1.0000000
 1.0000000
 1.0000000
 1.0000000
 1.0000000
 1.0000000
 1.0000000
 1.0000000
 1.0000000
 1.0000000
 1.0000000
 1.0000000
 1.0000000
 1.0000000
 1.0000000
 1.0000000
 1.0000000
 1.0000000
 1.0000000
 1.0000000
 1.0000000
 1.0000000
 1.0000000
 1.0000000
 1.0000000
 1.0000000
 1.0000000
 1.0000000
 1.0000000
 1.0000000
 1.0000000
 1.0000000
 1.0000000
 1.0000000
 1.0000000
 1.0000000
 1.0000000
 1.0000000
 1.0000000
 1.0000000
 1.0000000
 1.0000000
 1.0000000
 1.0000000
 1.0000000
 1.0000000
 1.0000000
 1.0000000
 0.9999999
 0.9999999
 0.9999999
 0.9999999
 0.9999999
 0.9999999
 0.9999999
 0.9999999
 0.9999999
 0.9999999
 0.9999999
 0.9999999
 0.9999999
 0.9999999
 0.9999999
 0.9999999
 0.9999999
 0.9999999
 0.9999999
 0.9999999
 0.9999996
 0.9999996
 0.9999996
 0.9999995
 0.9999995
 0.9999995
 0.9999995
 0.9999995
 0.9999995
 0.9999995
 0.9999995
 0.9999995
 0.9999995
 0.9999995
 0.9999995
 0.9999995
 0.9999995
 0.9999996
 0.9999996
 0.9999996
 0.9999975
 0.9999974
 0.9999974
 0.9999974
 0.9999973
 0.9999973
 0.9999973
 0.9999973
 0.9999973
 0.9999973
 0.9999973
 0.9999973
 0.9999973
 0.9999973
 0.9999973
 0.9999973
 0.9999974
 0.9999974
 0.9999974
 0.9999975
 0.9999856
 0.9999853
 0.9999851
 0.9999849
 0.9999848
 0.9999847
 0.9999847
 0.9999847
 0.9999847
 0.9999847
 0.9999847
 0.9999847
 0.9999847
 0.9999847
 0.9999847
 0.9999848
 0.9999849
 0.9999851
 0.9999853
 0.9999856
 0.9999194
 0.9999181
 0.9999168
 0.9999159
 0.9999153
 0.9999149
 0.9999148
 0.9999147
 0.9999146
 0.9999146
 0.9999146
 0.9999146
 0.9999147
 0.9999148
 0.9999149
 0.9999153
 0.9999159
 0.9999168
 0.9999181
 0.9999194
 0.9995602
 0.9995533
 0.9995463
 0.9995415
 0.9995381
 0.9995361
 0.9995350
 0.9995345
 0.9995343
 0.9995343
 0.9995343
 0.9995343
 0.9995345
 0.9995350
 0.9995361
 0.9995381
 0.9995415
 0.9995463
 0.9995533
 0.9995602
 0.9976459
 0.9976090
 0.9975701
 0.9975434
 0.9975245
 0.9975130
 0.9975068
 0.9975040
 0.9975030
 0.9975030
 0.9975030
 0.9975030
 0.9975040
 0.9975068
 0.9975130
 0.9975245
 0.9975434
 0.9975701
 0.9976090
 0.9976459
 0.9884137
 0.9883014
 0.9881709
 0.9880781
 0.9880075
 0.9879614
 0.9879339
 0.9879198
 0.9879135
 0.9879123
 0.9879123
 0.9879135
 0.9879198
 0.9879339
 0.9879614
 0.9880075
 0.9880781
 0.9881709
 0.9883014
 0.9884137
 0.9674834
 0.9673819
 0.9672191
 0.9670915
 0.9669764
 0.9668894
 0.9668276
 0.9667888
 0.9667671
 0.9667584
 0.9667584
 0.9667671
 0.9667888
 0.9668276
 0.9668894
 0.9669764
 0.9670915
 0.9672191
 0.9673819
 0.9674834
 0.9370919
 0.9370360
 0.9369111
 0.9367959
 0.9366637
 0.9365468
 0.9364498
 0.9363795
 0.9363347
 0.9363130
 0.9363130
 0.9363347
 0.9363795
 0.9364498
 0.9365468
 0.9366637
 0.9367959
 0.9369111
 0.9370360
 0.9370919
 0.9006290
 0.9006104
 0.9005478
 0.9004893
 0.9003796
 0.9002610
 0.9001432
 0.9000445
 0.8999753
 0.8999387
 0.8999387
 0.8999753
 0.9000445
 0.9001432
 0.9002610
 0.9003796
 0.9004893
 0.9005478
 0.9006104
 0.9006290
 0.8611868
 0.8611940
 0.8611817
 0.8611779
 0.8611209
 0.8610331
 0.8609192
 0.8608063
 0.8607197
 0.8606696
 0.8606696
 0.8607197
 0.8608063
 0.8609192
 0.8610331
 0.8611209
 0.8611779
 0.8611817
 0.8611940
 0.8611868
 0.8208326
 0.8208780
 0.8209044
 0.8209249
 0.8209126
 0.8208808
 0.8207962
 0.8206908
 0.8206008
 0.8205430
 0.8205430
 0.8206008
 0.8206908
 0.8207962
 0.8208808
 0.8209126
 0.8209249
 0.8209044
 0.8208780
 0.8208326
 0.7807439
 0.7808207
 0.7808644
 0.7809079
 0.7809260
 0.7809333
 0.7808977
 0.7808252
 0.7807494
 0.7806929
 0.7806929
 0.7807494
 0.7808252
 0.7808977
 0.7809333
 0.7809260
 0.7809079
 0.7808644
 0.7808207
 0.7807439
 0.7415307
 0.7416151
 0.7416592
 0.7417249
 0.7417738
 0.7417969
 0.7417962
 0.7417805
 0.7417392
 0.7416951
 0.7416951
 0.7417392
 0.7417805
 0.7417962
 0.7417969
 0.7417738
 0.7417249
 0.7416592
 0.7416151
 0.7415307
 0.7034871
 0.7035647
 0.7036037
 0.7036802
 0.7037435
 0.7037918
 0.7038120
 0.7038430
 0.7038530
 0.7038359
 0.7038359
 0.7038530
 0.7038430
 0.7038120
 0.7037918
 0.7037435
 0.7036802
 0.7036037
 0.7035647
 0.7034871
 0.6667518
 0.6668202
 0.6668543
 0.6669269
 0.6669948
 0.6670690
 0.6671100
 0.6671747
 0.6672334
 0.6672510
 0.6672510
 0.6672334
 0.6671747
 0.6671100
 0.6670690
 0.6669948
 0.6669269
 0.6668543
 0.6668202
 0.6667518
 0.6313958
 0.6314567
 0.6314874
 0.6315501
 0.6316159
 0.6317025
 0.6317745
 0.6318630
 0.6319604
 0.6320106
 0.6320106
 0.6319604
 0.6318630
 0.6317745
 0.6317025
 0.6316159
 0.6315501
 0.6314874
 0.6314567
 0.6313958
 0.5974397
 0.5974944
 0.5975224
 0.5975743
 0.5976337
 0.5977234
 0.5978265
 0.5979358
 0.5980609
 0.5981349
 0.5981349
 0.5980609
 0.5979358
 0.5978265
 0.5977234
 0.5976337
 0.5975743
 0.5975224
 0.5974944
 0.5974397
 0.5649238
 0.5649747
 0.5650010
 0.5650444
 0.5650971
 0.5651878
 0.5653131
 0.5654401
 0.5655844
 0.5656734
 0.5656734
 0.5655844
 0.5654401
 0.5653131
 0.5651878
 0.5650971
 0.5650444
 0.5650010
 0.5649747
 0.5649238
 0.5338221
 0.5338685
 0.5338930
 0.5339299
 0.5339778
 0.5340673
 0.5342068
 0.5343470
 0.5345033
 0.5346004
 0.5346004
 0.5345033
 0.5343470
 0.5342068
 0.5340673
 0.5339778
 0.5339299
 0.5338930
 0.5338685
 0.5338221
 0.5041847
 0.5042260
 0.5042491
 0.5042815
 0.5043280
 0.5044153
 0.5045599
 0.5047134
 0.5048741
 0.5049722
 0.5049722
 0.5048741
 0.5047134
 0.5045599
 0.5044153
 0.5043280
 0.5042815
 0.5042491
 0.5042260
 0.5041847
 0.4762708
 0.4763146
 0.4763447
 0.4763831
 0.4764366
 0.4765250
 0.4766710
 0.4768332
 0.4769894
 0.4770846
 0.4770846
 0.4769894
 0.4768332
 0.4766710
 0.4765250
 0.4764366
 0.4763831
 0.4763447
 0.4763146
 0.4762708
 0.4510035
 0.4510515
 0.4510865
 0.4511303
 0.4511843
 0.4512757
 0.4514201
 0.4515982
 0.4517615
 0.4518602
 0.4518602
 0.4517615
 0.4515982
 0.4514201
 0.4512757
 0.4511843
 0.4511303
 0.4510865
 0.4510515
 0.4510035
 0.4313831
 0.4314062
 0.4314216
 0.4314564
 0.4315455
 0.4316796
 0.4318813
 0.4321199
 0.4322847
 0.4323835
 0.4323835
 0.4322847
 0.4321199
 0.4318813
 0.4316796
 0.4315455
 0.4314564
 0.4314216
 0.4314062
 0.4313831
 0.4248769
 0.4248902
 0.4248994
 0.4249287
 0.4249958
 0.4251095
 0.4253084
 0.4255633
 0.4257829
 0.4259329
 0.4259329
 0.4257829
 0.4255633
 0.4253084
 0.4251095
 0.4249958
 0.4249287
 0.4248994
 0.4248902
 0.4248769
 0.4275243
 0.4275106
 0.4274748
 0.4274441
 0.4274361
 0.4274759
 0.4275629
 0.4277449
 0.4279366
 0.4280803
 0.4280803
 0.4279366
 0.4277449
 0.4275629
 0.4274759
 0.4274361
 0.4274441
 0.4274748
 0.4275106
 0.4275243
 0.4260882
 0.4261179
 0.4261246
 0.4261353
 0.4261443
 0.4261271
 0.4260974
 0.4260626
 0.4261905
 0.4263158
 0.4263158
 0.4261905
 0.4260626
 0.4260974
 0.4261271
 0.4261443
 0.4261353
 0.4261246
 0.4261179
 0.4260882
 0.4257888
 0.4257566
 0.4257459
 0.4257510
 0.4258129
 0.4258779
 0.4258655
 0.4257834
 0.4256168
 0.4254965
 0.4254965
 0.4256168
 0.4257834
 0.4258655
 0.4258779
 0.4258129
 0.4257510
 0.4257459
 0.4257566
 0.4257888
 0.4257884
 0.4257558
 0.4257529
 0.4257630
 0.4258239
 0.4258923
 0.4258722
 0.4257836
 0.4255969
 0.4254530
 0.4254530
 0.4255969
 0.4257836
 0.4258722
 0.4258923
 0.4258239
 0.4257630
 0.4257529
 0.4257558
 0.4257884
 0.4258577
 0.4258264
 0.4258350
 0.4258438
 0.4258959
 0.4259592
 0.4259347
 0.4258733
 0.4257142
 0.4255926
 0.4255926
 0.4257142
 0.4258733
 0.4259347
 0.4259592
 0.4258959
 0.4258438
 0.4258350
 0.4258264
 0.4258577
 0.4264549
 0.4264355
 0.4264634
 0.4264698
 0.4265037
 0.4265385
 0.4265084
 0.4264787
 0.4263890
 0.4263168
 0.4263168
 0.4263890
 0.4264787
 0.4265084
 0.4265385
 0.4265037
 0.4264698
 0.4264634
 0.4264355
 0.4264549
 0.4284317
 0.4285016
 0.4285694
 0.4285874
 0.4285647
 0.4285136
 0.4284638
 0.4284123
 0.4283815
 0.4283516
 0.4283516
 0.4283815
 0.4284123
 0.4284638
 0.4285136
 0.4285647
 0.4285874
 0.4285694
 0.4285016
 0.4284317
 0.4292192
 0.4293773
 0.4294424
 0.4294445
 0.4293884
 0.4292794
 0.4292130
 0.4291669
 0.4291624
 0.4291528
 0.4291528
 0.4291624
 0.4291669
 0.4292130
 0.4292794
 0.4293884
 0.4294445
 0.4294424
 0.4293773
 0.4292192
 0.4283963
 0.4285626
 0.4286159
 0.4286127
 0.4285497
 0.4284386
 0.4283829
 0.4283417
 0.4283318
 0.4283203
 0.4283203
 0.4283318
 0.4283417
 0.4283829
 0.4284386
 0.4285497
 0.4286127
 0.4286159
 0.4285626
 0.4283963
 0.4225767
 0.4227222
 0.4227073
 0.4226792
 0.4226013
 0.4225003
 0.4224608
 0.4224352
 0.4224263
 0.4224135
 0.4224135
 0.4224263
 0.4224352
 0.4224608
 0.4225003
 0.4226013
 0.4226792
 0.4227073
 0.4227222
 0.4225767
 0.3983526
 0.3983597
 0.3981315
 0.3980475
 0.3979550
 0.3979062
 0.3978931
 0.3978864
 0.3978745
 0.3978621
 0.3978621
 0.3978745
 0.3978864
 0.3978931
 0.3979062
 0.3979550
 0.3980475
 0.3981315
 0.3983597
 0.3983526
 0.3500177
 0.3498215
 0.3494800
 0.3493603
 0.3492658
 0.3492480
 0.3492468
 0.3492388
 0.3492110
 0.3491963
 0.3491963
 0.3492110
 0.3492388
 0.3492468
 0.3492480
 0.3492658
 0.3493603
 0.3494800
 0.3498215
 0.3500177
 0.3006260
 0.3004033
 0.3000878
 0.2999642
 0.2998876
 0.2998707
 0.2998751
 0.2998706
 0.2998478
 0.2998336
 0.2998336
 0.2998478
 0.2998706
 0.2998751
 0.2998707
 0.2998876
 0.2999642
 0.3000878
 0.3004033
 0.3006260
 0.2695265
 0.2695904
 0.2694572
 0.2693967
 0.2693266
 0.2692935
 0.2692828
 0.2692919
 0.2692873
 0.2692904
 0.2692904
 0.2692873
 0.2692919
 0.2692828
 0.2692935
 0.2693266
 0.2693967
 0.2694572
 0.2695904
 0.2695265
 0.2616276
 0.2619439
 0.2619270
 0.2619124
 0.2618892
 0.2618698
 0.2618591
 0.2618655
 0.2618832
 0.2618939
 0.2618939
 0.2618832
 0.2618655
 0.2618591
 0.2618698
 0.2618892
 0.2619124
 0.2619270
 0.2619439
 0.2616276
 0.2609869
 0.2613447
 0.2613491
 0.2613365
 0.2613081
 0.2612837
 0.2612729
 0.2612751
 0.2612919
 0.2613068
 0.2613068
 0.2612919
 0.2612751
 0.2612729
 0.2612837
 0.2613081
 0.2613365
 0.2613491
 0.2613447
 0.2609869
 0.2612886
 0.2616591
 0.2616730
 0.2616582
 0.2616383
 0.2616146
 0.2615999
 0.2615950
 0.2616108
 0.2616218
 0.2616218
 0.2616108
 0.2615950
 0.2615999
 0.2616146
 0.2616383
 0.2616582
 0.2616730
 0.2616591
 0.2612886
 0.2626876
 0.2630788
 0.2631231
 0.2631309
 0.2630989
 0.2630670
 0.2630459
 0.2630405
 0.2630350
 0.2630367
 0.2630367
 0.2630350
 0.2630405
 0.2630459
 0.2630670
 0.2630989
 0.2631309
 0.2631231
 0.2630788
 0.2626876
 0.2643085
 0.2646213
 0.2645977
 0.2645738
 0.2645234
 0.2644868
 0.2644556
 0.2644321
 0.2644117
 0.2644007
 0.2644007
 0.2644117
 0.2644321
 0.2644556
 0.2644868
 0.2645234
 0.2645738
 0.2645977
 0.2646213
 0.2643085
 0.2653686
 0.2656564
 0.2656193
 0.2655971
 0.2655437
 0.2655116
 0.2654841
 0.2654670
 0.2654495
 0.2654338
 0.2654338
 0.2654495
 0.2654670
 0.2654841
 0.2655116
 0.2655437
 0.2655971
 0.2656193
 0.2656564
 0.2653686
 0.2654285
 0.2656801
 0.2656335
 0.2656068
 0.2655581
 0.2655237
 0.2655012
 0.2654984
 0.2655010
 0.2654935
 0.2654935
 0.2655010
 0.2654984
 0.2655012
 0.2655237
 0.2655581
 0.2656068
 0.2656335
 0.2656801
 0.2654285
 0.2639611
 0.2641252
 0.2640703
 0.2640410
 0.2639910
 0.2639500
 0.2639216
 0.2639153
 0.2639221
 0.2639176
 0.2639176
 0.2639221
 0.2639153
 0.2639216
 0.2639500
 0.2639910
 0.2640410
 0.2640703
 0.2641252
 0.2639611
 0.2505055
 0.2504844
 0.2504936
 0.2504964
 0.2504947
 0.2504801
 0.2504624
 0.2504520
 0.2504514
 0.2504452
 0.2504452
 0.2504514
 0.2504520
 0.2504624
 0.2504801
 0.2504947
 0.2504964
 0.2504936
 0.2504844
 0.2505055
 0.1917672
 0.1915572
 0.1916927
 0.1917784
 0.1918635
 0.1919057
 0.1919203
 0.1919122
 0.1918970
 0.1918915
 0.1918915
 0.1918970
 0.1919122
 0.1919203
 0.1919057
 0.1918635
 0.1917784
 0.1916927
 0.1915572
 0.1917672
 0.1361133
 0.1360582
 0.1361157
 0.1361533
 0.1361903
 0.1362130
 0.1362263
 0.1362294
 0.1362276
 0.1362286
 0.1362286
 0.1362276
 0.1362294
 0.1362263
 0.1362130
 0.1361903
 0.1361533
 0.1361157
 0.1360582
 0.1361133
 0.1256990
 0.1256980
 0.1257023
 0.1257051
 0.1257079
 0.1257097
 0.1257110
 0.1257116
 0.1257118
 0.1257121
 0.1257121
 0.1257118
 0.1257116
 0.1257110
 0.1257097
 0.1257079
 0.1257051
 0.1257023
 0.1256980
 0.1256990
 0.1250407
 0.1250408
 0.1250411
 0.1250413
 0.1250414
 0.1250416
 0.1250417
 0.1250417
 0.1250417
 0.1250418
 0.1250418
 0.1250417
 0.1250417
 0.1250417
 0.1250416
 0.1250414
 0.1250413
 0.1250411
 0.1250408
 0.1250407
 0.1250024
 0.1250024
 0.1250024
 0.1250024
 0.1250024
 0.1250024
 0.1250024
 0.1250024
 0.1250024
 0.1250024
 0.1250024
 0.1250024
 0.1250024
 0.1250024
 0.1250024
 0.1250024
 0.1250024
 0.1250024
 0.1250024
 0.1250024
 0.1250001
 0.1250001
 0.1250001
 0.1250001
 0.1250001
 0.1250001
 0.1250001
 0.1250001
 0.1250001
 0.1250001
 0.1250001
 0.1250001
 0.1250001
 0.1250001
 0.1250001
 0.1250001
 0.1250001
 0.1250001
 0.1250001
 0.1250001
 0.1250000
 0.1250000
 0.1250000
 0.1250000
 0.1250000
 0.1250000
 0.1250000
 0.1250000
 0.1250000
 0.1250000
 0.1250000
 0.1250000
 0.1250000
 0.1250000
 0.1250000
 0.1250000
 0.1250000
 0.1250000
 0.1250000
 0.1250000
 0.1250000
 0.1250000
 0.1250000
 0.1250000
 0.1250000
 0.1250000
 0.1250000
 0.1250000
 0.1250000
 0.1250000
 0.1250000
 0.1250000
 0.1250000
 0.1250000
 0.1250000
 0.1250000
 0.1250000
 0.1250000
 0.1250000
 0.1250000
 0.1250000
 0.1250000
 0.1250000
 0.1250000
 0.1250000
 0.1250000
 0.1250000
 0.1250000
 0.1250000
 0.1250000
 0.1250000
 0.1250000
 0.1250000
 0.1250000
 0.1250000
 0.1250000
 0.1250000
 0.1250000
 0.1250000
 0.1250000
 0.1250000
 0.1250000
 0.1250000
 0.1250000
 0.1250000
 0.1250000
 0.1250000
 0.1250000
 0.1250000
 0.1250000
 0.1250000
 0.1250000
 0.1250000
 0.1250000
 0.1250000
 0.1250000
 0.1250000
 0.1250000
 0.1250000
 0.1250000
 0.1250000
 0.1250000
 0.1250000
 0.1250000
 0.1250000
 0.1250000
 0.1250000
 0.1250000
 0.1250000
 0.1250000
 0.1250000
 0.1250000
 0.1250000
 0.1250000
 0.1250000
 0.1250000
 0.1250000
 0.1250000
 0.1250000
 0.1250000
 0.1250000
 0.1250000
 0.1250000
 0.1250000
 0.1250000
 0.1250000
 0.1250000
 0.1250000
 0.1250000
 0.1250000
 0.1250000
 0.1250000
 0.1250000
 0.1250000
 0.1250000
 0.1250000
 0.1250000
 0.1250000
 0.1250000
 0.1250000
 0.1250000
 0.1250000
 0.1250000
 0.1250000
 0.1250000
 0.1250000
 0.1250000
 0.1250000
 0.1250000
 0.1250000
 0.1250000
 0.1250000
 0.1250000
 0.1250000
 0.1250000
 0.1250000
 0.1250000
 0.1250000
 0.1250000
 0.1250000
 0.1250000
 0.1250000
 0.1250000
 0.1250000
 0.1250000
 0.1250000
 0.1250000
 0.1250000
 0.1250000
 0.1250000
 0.1250000
 0.1250000
 0.1250000
 0.1250000
 0.1250000
 0.1250000
 0.1250000
 0.1250000
 0.1250000
 0.1250000
 0.1250000
 0.1250000
 0.1250000
 0.1250000
 0.1250000
 0.1250000
 0.1250000
 0.1250000
 0.1250000
 0.1250000
 0.1250000
 0.1250000
 0.1250000
 0.1250000
 0.1250000
 0.1250000
 0.1250000
 0.1250000
 0.1250000
 0.1250000
 0.1250000
 0.1250000
 0.1250000
 0.1250000
 0.1250000
 0.1250000
 0.1250000
 0.1250000
 0.1250000
 0.1250000
 0.1250000
 0.1250000
 0.1250000
 0.1250000
 0.1250000
 0.1250000
 0.1250000
 0.1250000
 0.1250000
 0.1250000
 0.1250000
 0.1250000
 0.1250000
 0.1250000
 0.1250000
 0.1250000
 0.1250000
 0.1250000
 0.1250000
 0.1250000
 0.1250000
 0.1250000