# vtk DataFile Version 3.0
CELLCENTER
ASCII
DATASET STRUCTURED_GRID
DIMENSIONS  20 100   1
POINTS      2000 float
  -0.0950   -0.4950    0.0000
  -0.0850   -0.4950    0.0000
  -0.0750   -0.4950    0.0000
  -0.0650   -0.4950    0.0000
  -0.0550   -0.4950    0.0000
  -0.0450   -0.4950    0.0000
  -0.0350   -0.4950    0.0000
  -0.0250   -0.4950    0.0000
  -0.0150   -0.4950    0.0000
  -0.0050   -0.4950    0.0000
   0.0050   -0.4950    0.0000
   0.0150   -0.4950    0.0000
   0.0250   -0.4950    0.0000
   0.0350   -0.4950    0.0000
   0.0450   -0.4950    0.0000
   0.0550   -0.4950    0.0000
   0.0650   -0.4950    0.0000
   0.0750   -0.4950    0.0000
   0.0850   -0.4950    0.0000
   0.0950   -0.4950    0.0000
  -0.0950   -0.4850    0.0000
  -0.0850   -0.4850    0.0000
  -0.0750   -0.4850    0.0000
  -0.0650   -0.4850    0.0000
  -0.0550   -0.4850    0.0000
  -0.0450   -0.4850    0.0000
  -0.0350   -0.4850    0.0000
  -0.0250   -0.4850    0.0000
  -0.0150   -0.4850    0.0000
  -0.0050   -0.4850    0.0000
   0.0050   -0.4850    0.0000
   0.0150   -0.4850    0.0000
   0.0250   -0.4850    0.0000
   0.0350   -0.4850    0.0000
   0.0450   -0.4850    0.0000
   0.0550   -0.4850    0.0000
   0.0650   -0.4850    0.0000
   0.0750   -0.4850    0.0000
   0.0850   -0.4850    0.0000
   0.0950   -0.4850    0.0000
  -0.0950   -0.4750    0.0000
  -0.0850   -0.4750    0.0000
  -0.0750   -0.4750    0.0000
  -0.0650   -0.4750    0.0000
  -0.0550   -0.4750    0.0000
  -0.0450   -0.4750    0.0000
  -0.0350   -0.4750    0.0000
  -0.0250   -0.4750    0.0000
  -0.0150   -0.4750    0.0000
  -0.0050   -0.4750    0.0000
   0.0050   -0.4750    0.0000
   0.0150   -0.4750    0.0000
   0.0250   -0.4750    0.0000
   0.0350   -0.4750    0.0000
   0.0450   -0.4750    0.0000
   0.0550   -0.4750    0.0000
   0.0650   -0.4750    0.0000
   0.0750   -0.4750    0.0000
   0.0850   -0.4750    0.0000
   0.0950   -0.4750    0.0000
  -0.0950   -0.4650    0.0000
  -0.0850   -0.4650    0.0000
  -0.0750   -0.4650    0.0000
  -0.0650   -0.4650    0.0000
  -0.0550   -0.4650    0.0000
  -0.0450   -0.4650    0.0000
  -0.0350   -0.4650    0.0000
  -0.0250   -0.4650    0.0000
  -0.0150   -0.4650    0.0000
  -0.0050   -0.4650    0.0000
   0.0050   -0.4650    0.0000
   0.0150   -0.4650    0.0000
   0.0250   -0.4650    0.0000
   0.0350   -0.4650    0.0000
   0.0450   -0.4650    0.0000
   0.0550   -0.4650    0.0000
   0.0650   -0.4650    0.0000
   0.0750   -0.4650    0.0000
   0.0850   -0.4650    0.0000
   0.0950   -0.4650    0.0000
  -0.0950   -0.4550    0.0000
  -0.0850   -0.4550    0.0000
  -0.0750   -0.4550    0.0000
  -0.0650   -0.4550    0.0000
  -0.0550   -0.4550    0.0000
  -0.0450   -0.4550    0.0000
  -0.0350   -0.4550    0.0000
  -0.0250   -0.4550    0.0000
  -0.0150   -0.4550    0.0000
  -0.0050   -0.4550    0.0000
   0.0050   -0.4550    0.0000
   0.0150   -0.4550    0.0000
   0.0250   -0.4550    0.0000
   0.0350   -0.4550    0.0000
   0.0450   -0.4550    0.0000
   0.0550   -0.4550    0.0000
   0.0650   -0.4550    0.0000
   0.0750   -0.4550    0.0000
   0.0850   -0.4550    0.0000
   0.0950   -0.4550    0.0000
  -0.0950   -0.4450    0.0000
  -0.0850   -0.4450    0.0000
  -0.0750   -0.4450    0.0000
  -0.0650   -0.4450    0.0000
  -0.0550   -0.4450    0.0000
  -0.0450   -0.4450    0.0000
  -0.0350   -0.4450    0.0000
  -0.0250   -0.4450    0.0000
  -0.0150   -0.4450    0.0000
  -0.0050   -0.4450    0.0000
   0.0050   -0.4450    0.0000
   0.0150   -0.4450    0.0000
   0.0250   -0.4450    0.0000
   0.0350   -0.4450    0.0000
   0.0450   -0.4450    0.0000
   0.0550   -0.4450    0.0000
   0.0650   -0.4450    0.0000
   0.0750   -0.4450    0.0000
   0.0850   -0.4450    0.0000
   0.0950   -0.4450    0.0000
  -0.0950   -0.4350    0.0000
  -0.0850   -0.4350    0.0000
  -0.0750   -0.4350    0.0000
  -0.0650   -0.4350    0.0000
  -0.0550   -0.4350    0.0000
  -0.0450   -0.4350    0.0000
  -0.0350   -0.4350    0.0000
  -0.0250   -0.4350    0.0000
  -0.0150   -0.4350    0.0000
  -0.0050   -0.4350    0.0000
   0.0050   -0.4350    0.0000
   0.0150   -0.4350    0.0000
   0.0250   -0.4350    0.0000
   0.0350   -0.4350    0.0000
   0.0450   -0.4350    0.0000
   0.0550   -0.4350    0.0000
   0.0650   -0.4350    0.0000
   0.0750   -0.4350    0.0000
   0.0850   -0.4350    0.0000
   0.0950   -0.4350    0.0000
  -0.0950   -0.4250    0.0000
  -0.0850   -0.4250    0.0000
  -0.0750   -0.4250    0.0000
  -0.0650   -0.4250    0.0000
  -0.0550   -0.4250    0.0000
  -0.0450   -0.4250    0.0000
  -0.0350   -0.4250    0.0000
  -0.0250   -0.4250    0.0000
  -0.0150   -0.4250    0.0000
  -0.0050   -0.4250    0.0000
   0.0050   -0.4250    0.0000
   0.0150   -0.4250    0.0000
   0.0250   -0.4250    0.0000
   0.0350   -0.4250    0.0000
   0.0450   -0.4250    0.0000
   0.0550   -0.4250    0.0000
   0.0650   -0.4250    0.0000
   0.0750   -0.4250    0.0000
   0.0850   -0.4250    0.0000
   0.0950   -0.4250    0.0000
  -0.0950   -0.4150    0.0000
  -0.0850   -0.4150    0.0000
  -0.0750   -0.4150    0.0000
  -0.0650   -0.4150    0.0000
  -0.0550   -0.4150    0.0000
  -0.0450   -0.4150    0.0000
  -0.0350   -0.4150    0.0000
  -0.0250   -0.4150    0.0000
  -0.0150   -0.4150    0.0000
  -0.0050   -0.4150    0.0000
   0.0050   -0.4150    0.0000
   0.0150   -0.4150    0.0000
   0.0250   -0.4150    0.0000
   0.0350   -0.4150    0.0000
   0.0450   -0.4150    0.0000
   0.0550   -0.4150    0.0000
   0.0650   -0.4150    0.0000
   0.0750   -0.4150    0.0000
   0.0850   -0.4150    0.0000
   0.0950   -0.4150    0.0000
  -0.0950   -0.4050    0.0000
  -0.0850   -0.4050    0.0000
  -0.0750   -0.4050    0.0000
  -0.0650   -0.4050    0.0000
  -0.0550   -0.4050    0.0000
  -0.0450   -0.4050    0.0000
  -0.0350   -0.4050    0.0000
  -0.0250   -0.4050    0.0000
  -0.0150   -0.4050    0.0000
  -0.0050   -0.4050    0.0000
   0.0050   -0.4050    0.0000
   0.0150   -0.4050    0.0000
   0.0250   -0.4050    0.0000
   0.0350   -0.4050    0.0000
   0.0450   -0.4050    0.0000
   0.0550   -0.4050    0.0000
   0.0650   -0.4050    0.0000
   0.0750   -0.4050    0.0000
   0.0850   -0.4050    0.0000
   0.0950   -0.4050    0.0000
  -0.0950   -0.3950    0.0000
  -0.0850   -0.3950    0.0000
  -0.0750   -0.3950    0.0000
  -0.0650   -0.3950    0.0000
  -0.0550   -0.3950    0.0000
  -0.0450   -0.3950    0.0000
  -0.0350   -0.3950    0.0000
  -0.0250   -0.3950    0.0000
  -0.0150   -0.3950    0.0000
  -0.0050   -0.3950    0.0000
   0.0050   -0.3950    0.0000
   0.0150   -0.3950    0.0000
   0.0250   -0.3950    0.0000
   0.0350   -0.3950    0.0000
   0.0450   -0.3950    0.0000
   0.0550   -0.3950    0.0000
   0.0650   -0.3950    0.0000
   0.0750   -0.3950    0.0000
   0.0850   -0.3950    0.0000
   0.0950   -0.3950    0.0000
  -0.0950   -0.3850    0.0000
  -0.0850   -0.3850    0.0000
  -0.0750   -0.3850    0.0000
  -0.0650   -0.3850    0.0000
  -0.0550   -0.3850    0.0000
  -0.0450   -0.3850    0.0000
  -0.0350   -0.3850    0.0000
  -0.0250   -0.3850    0.0000
  -0.0150   -0.3850    0.0000
  -0.0050   -0.3850    0.0000
   0.0050   -0.3850    0.0000
   0.0150   -0.3850    0.0000
   0.0250   -0.3850    0.0000
   0.0350   -0.3850    0.0000
   0.0450   -0.3850    0.0000
   0.0550   -0.3850    0.0000
   0.0650   -0.3850    0.0000
   0.0750   -0.3850    0.0000
   0.0850   -0.3850    0.0000
   0.0950   -0.3850    0.0000
  -0.0950   -0.3750    0.0000
  -0.0850   -0.3750    0.0000
  -0.0750   -0.3750    0.0000
  -0.0650   -0.3750    0.0000
  -0.0550   -0.3750    0.0000
  -0.0450   -0.3750    0.0000
  -0.0350   -0.3750    0.0000
  -0.0250   -0.3750    0.0000
  -0.0150   -0.3750    0.0000
  -0.0050   -0.3750    0.0000
   0.0050   -0.3750    0.0000
   0.0150   -0.3750    0.0000
   0.0250   -0.3750    0.0000
   0.0350   -0.3750    0.0000
   0.0450   -0.3750    0.0000
   0.0550   -0.3750    0.0000
   0.0650   -0.3750    0.0000
   0.0750   -0.3750    0.0000
   0.0850   -0.3750    0.0000
   0.0950   -0.3750    0.0000
  -0.0950   -0.3650    0.0000
  -0.0850   -0.3650    0.0000
  -0.0750   -0.3650    0.0000
  -0.0650   -0.3650    0.0000
  -0.0550   -0.3650    0.0000
  -0.0450   -0.3650    0.0000
  -0.0350   -0.3650    0.0000
  -0.0250   -0.3650    0.0000
  -0.0150   -0.3650    0.0000
  -0.0050   -0.3650    0.0000
   0.0050   -0.3650    0.0000
   0.0150   -0.3650    0.0000
   0.0250   -0.3650    0.0000
   0.0350   -0.3650    0.0000
   0.0450   -0.3650    0.0000
   0.0550   -0.3650    0.0000
   0.0650   -0.3650    0.0000
   0.0750   -0.3650    0.0000
   0.0850   -0.3650    0.0000
   0.0950   -0.3650    0.0000
  -0.0950   -0.3550    0.0000
  -0.0850   -0.3550    0.0000
  -0.0750   -0.3550    0.0000
  -0.0650   -0.3550    0.0000
  -0.0550   -0.3550    0.0000
  -0.0450   -0.3550    0.0000
  -0.0350   -0.3550    0.0000
  -0.0250   -0.3550    0.0000
  -0.0150   -0.3550    0.0000
  -0.0050   -0.3550    0.0000
   0.0050   -0.3550    0.0000
   0.0150   -0.3550    0.0000
   0.0250   -0.3550    0.0000
   0.0350   -0.3550    0.0000
   0.0450   -0.3550    0.0000
   0.0550   -0.3550    0.0000
   0.0650   -0.3550    0.0000
   0.0750   -0.3550    0.0000
   0.0850   -0.3550    0.0000
   0.0950   -0.3550    0.0000
  -0.0950   -0.3450    0.0000
  -0.0850   -0.3450    0.0000
  -0.0750   -0.3450    0.0000
  -0.0650   -0.3450    0.0000
  -0.0550   -0.3450    0.0000
  -0.0450   -0.3450    0.0000
  -0.0350   -0.3450    0.0000
  -0.0250   -0.3450    0.0000
  -0.0150   -0.3450    0.0000
  -0.0050   -0.3450    0.0000
   0.0050   -0.3450    0.0000
   0.0150   -0.3450    0.0000
   0.0250   -0.3450    0.0000
   0.0350   -0.3450    0.0000
   0.0450   -0.3450    0.0000
   0.0550   -0.3450    0.0000
   0.0650   -0.3450    0.0000
   0.0750   -0.3450    0.0000
   0.0850   -0.3450    0.0000
   0.0950   -0.3450    0.0000
  -0.0950   -0.3350    0.0000
  -0.0850   -0.3350    0.0000
  -0.0750   -0.3350    0.0000
  -0.0650   -0.3350    0.0000
  -0.0550   -0.3350    0.0000
  -0.0450   -0.3350    0.0000
  -0.0350   -0.3350    0.0000
  -0.0250   -0.3350    0.0000
  -0.0150   -0.3350    0.0000
[...]
POINT_DATA     2000
SCALARS rho float
LOOKUP_TABLE default
 1.0000000
 1.0000000
 1.0000000
 1.0000000
 1.0000000
 1.0000000
 1.0000000
 1.0000000
 1.0000000
 1.0000000
 1.0000000
 1.0000000
 1.0000000
 1.0000000
 1.0000000
 1.0000000
 1.0000000
 1.0000000
 1.0000000
 1.0000000
 1.0000000
 1.0000000
 1.0000000
 1.0000000
 1.0000000
 1.0000000
 1.0000000
 1.0000000
 1.0000000
 1.0000000
 1.0000000
 1.0000000
 1.0000000
 1.0000000
 1.0000000
 1.0000000
 1.0000000
 1.0000000
 1.0000000
 1.0000000
 1.0000000
 1.0000000
 1.0000000
 1.0000000
 1.0000000
 1.0000000
 1.0000000
 1.0000000
 1.0000000
 1.0000000
 1.0000000
 1.0000000
 1.0000000
 1.0000000
 1.0000000
 1.0000000
 1.0000000
 1.0000000
 1.0000000
 1.0000000
 1.0000000
 1.0000000
 1.0000000
 1.0000000
 1.0000000
 1.0000000
 1.0000000
 1.0000000
 1.0000000
 1.0000000
 1.0000000
 1.0000000
 1.0000000
 1.0000000
 1.0000000
 1.0000000
 1.0000000
 1.0000000
 1.0000000
 1.0000000
 1.0000000
 1.0000000
 1.0000000
 1.0000000
 1.0000000
 1.0000000
 1.0000000
 1.0000000
 1.0000000
 1.0000000
 1.0000000
 1.0000000
 1.0000000
 1.0000000
 1.0000000
 1.0000000
 1.0000000
 1.0000000
 1.0000000
 1.0000000
 1.0000000
 1.0000000
 1.0000000
 1.0000000
 1.0000000
 1.0000000
 1.0000000
 1.0000000
 1.0000000
 1.0000000
 1.0000000
 1.0000000
 1.0000000
 1.0000000
 1.0000000
 1.0000000
 1.0000000
 1.0000000
 1.0000000
 1.0000000
 1.0000000
 1.0000000
 1.0000000
 1.0000000
 1.0000000
 1.0000000
 1.0000000
 1.0000000
 1.0000000
 1.0000000
 1.0000000
 1.0000000
 1.0000000
 1.0000000
 1.0000000
 1.0000000
 1.0000000
 1.0000000
 1.0000000
 1.0000000
 1.0000000
 1.0000000
 1.0000000
 1.0000000
 1.0000000
 1.0000000
 1.0000000
 1.0000000
 1.0000000
 1.0000000
 1.0000000
 1.0000000
 1.0000000
 1.0000000
 1.0000000
 1.0000000
 1.0000000
 1.0000000
 1.0000000
 1.0000000
 1.0000000
 1.0000000
 1.0000000
 1.0000000
 1.0000000
 1.0000000
 1.0000000
 1.0000000
 1.0000000
 1.0000000
 1.0000000
 1.0000000
 1.0000000
 1.0000000
 1.0000000
 1.0000000
 1.0000000
 1.0000000
 1.0000000
 1.0000000
 1.0000000
 1.0000000
 1.0000000
 1.0000000
 1.0000000
 1.0000000
 1.0000000
 1.0000000
 1.0000000
 1.0000000
 1.0000000
 1.0000000
 1.0000000
 1.0000000
 1.0000000
 1.0000000
 1.0000000
 1.0000000
 1.0000000
 1.0000000
 1.0000000
 1.0000000
 1.0000000
 1.0000000
 1.0000000
 1.0000000
 1.0000000
 1.0000000
 1.0000000
 1.0000000
 1.0000000
 1.0000000
 1.0000000
 1.0000000
 1.0000000
 1.0000000
 1.0000000
 1.0000000
 1.0000000
 1.0000000
 1.0000000
 1.0000000
 1.0000000
 1.0000000
 1.0000000
 1.0000000
 1.0000000
 1.0000000
 1.0000000
 1.0000000
 1.0000000
 1.0000000
 1.0000000
 1.0000000
 1.0000000
 1.0000000
 1.0000000
 1.0000000
 1.0000000
 1.0000000
 1.0000000
 1.0000000
 1.0000000
 1.0000000
 1.0000000
 1.0000000
 1.0000000
 1.0000000
 1.0000000
 1.0000000
 1.0000000
 1.0000000
 1.0000000
 1.0000000
 1.0000000
 1.0000000
 1.0000000
 1.0000000
 1.0000000
 1.0000000
 1.0000000
 1.0000000
 1.0000000
 1.0000000
 1.0000000
 1.0000000
 1.0000000
 1.0000000
 1.0000000
 1.0000000
 1.0000000
 1.0000000
 1.0000000
 1.0000000
 1.0000000
 1.0000000
 1.0000000
 1.0000000
 1.0000000
 1.0000000
 1.0000000
 1.0000000
 1.0000000
 1.0000000
 1.0000000
 1.0000000
 1.0000000
 1.0000000
 1.0000000
 1.0000000
 1.0000000
 1.0000000
 1.0000000
 1.0000000
 1.0000000
 1.0000000
 1.0000000
 1.0000000
 1.0000000
 1.0000000
 1.0000000
 1.0000000
 1.0000000
 1.0000000
 1.0000000
 1.0000000
 1.0000000
 1.0000000
 1.0000000
 1.0000000
 1.0000000
 1.0000000
 1.0000000
 1.0000000
 1.0000000
 1.0000000
 1.0000000
 1.0000000
 1.0000000
 1.0000000
 1.0000000
 1.0000000
 1.0000000
 1.0000000
 1.0000000
 1.0000000
 1.0000000
 1.0000000
 1.0000000
 1.0000000
 1.0000000
 1.0000000
 1.0000000
 1.0000000
 1.0000000
 1.0000000
 1.0000000
 1.0000000
 1.0000000
 1.0000000
 1.0000000
 1.0000000
 1.0000000
 1.0000000
 1.0000000
 1.0000000
 1.0000000
 1.0000000
 1.0000000
 1.0000000
 1.0000000
 1.0000000
 1.0000000
 1.0000000
 1.0000000
 1.0000000
 1.0000000
 1.0000000
 1.0000000
 1.0000000
 0.9999998
 0.9999998
 0.9999998
 0.9999998
 0.9999998
 0.9999998
 0.9999998
 0.9999998
 0.9999998
 0.9999998
 0.9999998
 0.9999998
 0.9999998
 0.9999998
 0.9999998
 0.9999998
 0.9999998
 0.9999998
 0.9999998
 0.9999998
 0.9999992
 0.9999991
 0.9999991
 0.9999991
 0.9999991
 0.9999991
 0.9999991
 0.9999991
 0.9999991
 0.9999991
 0.9999991
 0.9999991
 0.9999991
 0.9999991
 0.9999991
 0.9999991
 0.9999991
 0.9999991
 0.9999991
 0.9999992
 0.9999954
 0.9999953
 0.9999952
 0.9999951
 0.9999951
 0.9999951
 0.9999951
 0.9999950
 0.9999950
 0.9999950
 0.9999950
 0.9999950
 0.9999950
 0.9999951
 0.9999951
 0.9999951
 0.9999951
 0.9999952
 0.9999953
 0.9999954
 0.9999749
 0.9999745
 0.9999741
 0.9999738
 0.9999735
 0.9999734
 0.9999732
 0.9999732
 0.9999731
 0.9999731
 0.9999731
 0.9999731
 0.9999732
 0.9999732
 0.9999734
 0.9999735
 0.9999738
 0.9999741
 0.9999745
 0.9999749
 0.9998655
 0.9998633
 0.9998610
 0.9998593
 0.9998581
 0.9998572
 0.9998566
 0.9998562
 0.9998560
 0.9998559
 0.9998559
 0.9998560
 0.9998562
 0.9998566
 0.9998572
 0.9998581
 0.9998593
 0.9998610
 0.9998633
 0.9998655
 0.9992822
 0.9992707
 0.9992588
 0.9992500
 0.9992431
 0.9992381
 0.9992348
 0.9992327
 0.9992316
 0.9992312
 0.9992312
 0.9992316
 0.9992327
 0.9992348
 0.9992381
 0.9992431
 0.9992500
 0.9992588
 0.9992707
 0.9992822
 0.9961826
 0.9961281
 0.9960693
 0.9960251
 0.9959899
 0.9959643
 0.9959467
 0.9959355
 0.9959293
 0.9959267
 0.9959267
 0.9959293
 0.9959355
 0.9959467
 0.9959643
 0.9959899
 0.9960251
 0.9960693
 0.9961281
 0.9961826
 0.9859690
 0.9858877
 0.9857793
 0.9856948
 0.9856210
 0.9855638
 0.9855203
 0.9854897
 0.9854709
 0.9854622
 0.9854622
 0.9854709
 0.9854897
 0.9855203
 0.9855638
 0.9856210
 0.9856948
 0.9857793
 0.9858877
 0.9859690
 0.9685838
 0.9685255
 0.9684208
 0.9683318
 0.9682398
 0.9681596
 0.9680914
 0.9680386
 0.9680040
 0.9679863
 0.9679863
 0.9680040
 0.9680386
 0.9680914
 0.9681596
 0.9682398
 0.9683318
 0.9684208
 0.9685255
 0.9685838
 0.9457064
 0.9456741
 0.9456059
 0.9455428
 0.9454587
 0.9453749
 0.9452947
 0.9452266
 0.9451796
 0.9451533
 0.9451533
 0.9451796
 0.9452266
 0.9452947
 0.9453749
 0.9454587
 0.9455428
 0.9456059
 0.9456741
 0.9457064
 0.9193684
 0.9193531
 0.9193217
 0.9192951
 0.9192391
 0.9191734
 0.9191008
 0.9190330
 0.9189838
 0.9189534
 0.9189534
 0.9189838
 0.9190330
 0.9191008
 0.9191734
 0.9192391
 0.9192951
 0.9193217
 0.9193531
 0.9193684
 0.8912255
 0.8912279
 0.8912225
 0.8912199
 0.8911980
 0.8911656
 0.8911191
 0.8910696
 0.8910317
 0.8910045
 0.8910045
 0.8910317
 0.8910696
 0.8911191
 0.8911656
 0.8911980
 0.8912199
 0.8912225
 0.8912279
 0.8912255
 0.8623697
 0.8623936
 0.8624064
 0.8624167
 0.8624180
 0.8624230
 0.8624138
 0.8623964
 0.8623819
 0.8623661
 0.8623661
 0.8623819
 0.8623964
 0.8624138
 0.8624230
 0.8624180
 0.8624167
 0.8624064
 0.8623936
 0.8623697
 0.8334463
 0.8334851
 0.8335046
 0.8335318
 0.8335512
 0.8335800
 0.8336073
 0.8336297
 0.8336455
 0.8336476
 0.8336476
 0.8336455
 0.8336297
 0.8336073
 0.8335800
 0.8335512
 0.8335318
 0.8335046
 0.8334851
 0.8334463
 0.8048107
 0.8048518
 0.8048730
 0.8049146
 0.8049499
 0.8049977
 0.8050531
 0.8051089
 0.8051554
 0.8051780
 0.8051780
 0.8051554
 0.8051089
 0.8050531
 0.8049977
 0.8049499
 0.8049146
 0.8048730
 0.8048518
 0.8048107
 0.7766495
 0.7766875
 0.7767102
 0.7767566
 0.7768066
 0.7768730
 0.7769492
 0.7770279
 0.7770963
 0.7771358
 0.7771358
 0.7770963
 0.7770279
 0.7769492
 0.7768730
 0.7768066
 0.7767566
 0.7767102
 0.7766875
 0.7766495
 0.7490627
 0.7490984
 0.7491248
 0.7491722
 0.7492308
 0.7493140
 0.7494061
 0.7494986
 0.7495758
 0.7496246
 0.7496246
 0.7495758
 0.7494986
 0.7494061
 0.7493140
 0.7492308
 0.7491722
 0.7491248
 0.7490984
 0.7490627
 0.7221090
 0.7221448
 0.7221742
 0.7222250
 0.7222899
 0.7223838
 0.7224857
 0.7225848
 0.7226599
 0.7227095
 0.7227095
 0.7226599
 0.7225848
 0.7224857
 0.7223838
 0.7222899
 0.7222250
 0.7221742
 0.7221448
 0.7221090
 0.6958230
 0.6958608
 0.6958926
 0.6959503
 0.6960213
 0.6961198
 0.6962243
 0.6963238
 0.6963877
 0.6964331
 0.6964331
 0.6963877
 0.6963238
 0.6962243
 0.6961198
 0.6960213
 0.6959503
 0.6958926
 0.6958608
 0.6958230
 0.6702238
 0.6702661
 0.6703009
 0.6703659
 0.6704436
 0.6705427
 0.6706429
 0.6707315
 0.6707878
 0.6708244
 0.6708244
 0.6707878
 0.6707315
 0.6706429
 0.6705427
 0.6704436
 0.6703659
 0.6703009
 0.6702661
 0.6702238
 0.6453222
 0.6453699
 0.6454095
 0.6454809
 0.6455649
 0.6456622
 0.6457500
 0.6458229
 0.6458746
 0.6458992
 0.6458992
 0.6458746
 0.6458229
 0.6457500
 0.6456622
 0.6455649
 0.6454809
 0.6454095
 0.6453699
 0.6453222
 0.6211223
 0.6211753
 0.6212208
 0.6212981
 0.6213868
 0.6214787
 0.6215480
 0.6216120
 0.6216488
 0.6216676
 0.6216676
 0.6216488
 0.6216120
 0.6215480
 0.6214787
 0.6213868
 0.6212981
 0.6212208
 0.6211753
 0.6211223
 0.5976242
 0.5976823
 0.5977340
 0.5978164
 0.5979067
 0.5979896
 0.5980416
 0.5980973
 0.5981168
 0.5981306
 0.5981306
 0.5981168
 0.5980973
 0.5980416
 0.5979896
 0.5979067
 0.5978164
 0.5977340
 0.5976823
 0.5976242
 0.5748240
 0.5748874
 0.5749450
 0.5750310
 0.5751190
 0.5751912
 0.5752319
 0.5752721
 0.5752791
 0.5752869
 0.5752869
 0.5752791
 0.5752721
 0.5752319
 0.5751912
 0.5751190
 0.5750310
 0.5749450
 0.5748874
 0.5748240
 0.5527178
 0.5527870
 0.5528497
 0.5529371
 0.5530198
 0.5530810
 0.5531142
 0.5531352
 0.5531338
 0.5531352
 0.5531352
 0.5531338
 0.5531352
 0.5531142
 0.5530810
 0.5530198
 0.5529371
 0.5528497
 0.5527870
 0.5527178
 0.5313037
 0.5313789
 0.5314457
 0.5315326
 0.5316087
 0.5316577
 0.5316854
 0.5316883
 0.5316801
 0.5316757
 0.5316757
 0.5316801
 0.5316883
 0.5316854
 0.5316577
 0.5316087
 0.5315326
 0.5314457
 0.5313789
 0.5313037
 0.5105800
 0.5106612
 0.5107307
 0.5108156
 0.5108839
 0.5109221
 0.5109422
 0.5109330
 0.5109170
 0.5109080
 0.5109080
 0.5109170
 0.5109330
 0.5109422
 0.5109221
 0.5108839
 0.5108156
 0.5107307
 0.5106612
 0.5105800
 0.4905669
 0.4906525
 0.4907231
 0.4908056
 0.4908649
 0.4908956
 0.4909060
 0.4908896
 0.4908667
 0.4908542
 0.4908542
 0.4908667
 0.4908896
 0.4909060
 0.4908956
 0.4908649
 0.4908056
 0.4907231
 0.4906525
 0.4905669
 0.4713063
 0.4713960
 0.4714655
 0.4715444
 0.4715929
 0.4716218
 0.4716224
 0.4716007
 0.4715725
 0.4715557
 0.4715557
 0.4715725
 0.4716007
 0.4716224
 0.4716218
 0.4715929
 0.4715444
 0.4714655
 0.4713960
 0.4713063
 0.4531875
 0.4532811
 0.4533490
 0.4534267
 0.4534729
 0.4535050
 0.4535033
 0.4534851
 0.4534613
 0.4534469
 0.4534469
 0.4534613
 0.4534851
 0.4535033
 0.4535050
 0.4534729
 0.4534267
 0.4533490
 0.4532811
 0.4531875
 0.4372494
 0.4373285
 0.4373978
 0.4374709
 0.4375138
 0.4375402
 0.4375398
 0.4375146
 0.4374841
 0.4374635
 0.4374635
 0.4374841
 0.4375146
 0.4375398
 0.4375402
 0.4375138
 0.4374709
 0.4373978
 0.4373285
 0.4372494
 0.4280794
 0.4281404
 0.4282017
 0.4282726
 0.4283118
 0.4283552
 0.4283715
 0.4283912
 0.4284038
 0.4284189
 0.4284189
 0.4284038
 0.4283912
 0.4283715
 0.4283552
 0.4283118
 0.4282726
 0.4282017
 0.4281404
 0.4280794
 0.4259794
 0.4260268
 0.4260833
 0.4261269
 0.4261334
 0.4261314
 0.4260898
 0.4260387
 0.4259923
 0.4259699
 0.4259699
 0.4259923
 0.4260387
 0.4260898
 0.4261314
 0.4261334
 0.4261269
 0.4260833
 0.4260268
 0.4259794
 0.4271630
 0.4272013
 0.4272348
 0.4272431
 0.4272097
 0.4271493
 0.4270267
 0.4268859
 0.4267655
 0.4266984
 0.4266984
 0.4267655
 0.4268859
 0.4270267
 0.4271493
 0.4272097
 0.4272431
 0.4272348
 0.4272013
 0.4271630
 0.4260032
 0.4260512
 0.4260936
 0.4260891
 0.4260376
 0.4259409
 0.4258002
 0.4255772
 0.4254333
 0.4253448
 0.4253448
 0.4254333
 0.4255772
 0.4258002
 0.4259409
 0.4260376
 0.4260891
 0.4260936
 0.4260512
 0.4260032
 0.4259867
 0.4260212
 0.4260212
 0.4260001
 0.4259403
 0.4257610
 0.4255669
 0.4254772
 0.4254257
 0.4253512
 0.4253512
 0.4254257
 0.4254772
 0.4255669
 0.4257610
 0.4259403
 0.4260001
 0.4260212
 0.4260212
 0.4259867
 0.4260444
 0.4260587
 0.4260251
 0.4259993
 0.4258909
 0.4257041
 0.4255770
 0.4255140
 0.4255182
 0.4255147
 0.4255147
 0.4255182
 0.4255140
 0.4255770
 0.4257041
 0.4258909
 0.4259993
 0.4260251
 0.4260587
 0.4260444
 0.4261161
 0.4260992
 0.4260425
 0.4259759
 0.4258420
 0.4256961
 0.4256212
 0.4256012
 0.4256769
 0.4257221
 0.4257221
 0.4256769
 0.4256012
 0.4256212
 0.4256961
 0.4258420
 0.4259759
 0.4260425
 0.4260992
 0.4261161
 0.4261654
 0.4261232
 0.4260423
 0.4259416
 0.4257966
 0.4257113
 0.4256856
 0.4256575
 0.4257008
 0.4257417
 0.4257417
 0.4257008
 0.4256575
 0.4256856
 0.4257113
 0.4257966
 0.4259416
 0.4260423
 0.4261232
 0.4261654
 0.4261874
 0.4261086
 0.4260235
 0.4258723
 0.4257578
 0.4257345
 0.4257189
 0.4257088
 0.4257128
 0.4257300
 0.4257300
 0.4257128
 0.4257088
 0.4257189
 0.4257345
 0.4257578
 0.4258723
 0.4260235
 0.4261086
 0.4261874
 0.4262004
 0.4261274
 0.4260365
 0.4258910
 0.4258061
 0.4258014
 0.4257854
 0.4257796
 0.4257349
 0.4257351
 0.4257351
 0.4257349
 0.4257796
 0.4257854
 0.4258014
 0.4258061
 0.4258910
 0.4260365
 0.4261274
 0.4262004
 0.4262036
 0.4261375
 0.4260531
 0.4259333
 0.4258762
 0.4258670
 0.4258546
 0.4258402
 0.4257698
 0.4257557
 0.4257557
 0.4257698
 0.4258402
 0.4258546
 0.4258670
 0.4258762
 0.4259333
 0.4260531
 0.4261375
 0.4262036
 0.4262915
 0.4262260
 0.4261564
 0.4260693
 0.4260360
 0.4260352
 0.4260212
 0.4260075
 0.4259342
 0.4259104
 0.4259104
 0.4259342
 0.4260075
 0.4260212
 0.4260352
 0.4260360
 0.4260693
 0.4261564
 0.4262260
 0.4262915
 0.4268321
 0.4267698
 0.4267304
 0.4266743
 0.4266655
 0.4266901
 0.4266989
 0.4267236
 0.4267112
 0.4267066
 0.4267066
 0.4267112
 0.4267236
 0.4266989
 0.4266901
 0.4266655
 0.4266743
 0.4267304
 0.4267698
 0.4268321
 0.4278678
 0.4278967
 0.4279091
 0.4278794
 0.4278631
 0.4278598
 0.4278742
 0.4279244
 0.4279676
 0.4279909
 0.4279909
 0.4279676
 0.4279244
 0.4278742
 0.4278598
 0.4278631
 0.4278794
 0.4279091
 0.4278967
 0.4278678
 0.4281316
 0.4282200
 0.4282506
 0.4282381
 0.4282072
 0.4281667
 0.4281666
 0.4282085
 0.4282535
 0.4282823
 0.4282823
 0.4282535
 0.4282085
 0.4281666
 0.4281667
 0.4282072
 0.4282381
 0.4282506
 0.4282200
 0.4281316
 0.4277677
 0.4278755
 0.4279064
 0.4278950
 0.4278608
 0.4278144
 0.4278122
 0.4278482
 0.4278901
 0.4279166
 0.4279166
 0.4278901
 0.4278482
 0.4278122
 0.4278144
 0.4278608
 0.4278950
 0.4279064
 0.4278755
 0.4277677
 0.4252648
 0.4253939
 0.4254153
 0.4254168
 0.4253812
 0.4253259
 0.4253184
 0.4253407
 0.4253730
 0.4253946
 0.4253946
 0.4253730
 0.4253407
 0.4253184
 0.4253259
 0.4253812
 0.4254168
 0.4254153
 0.4253939
 0.4252648
 0.4144767
 0.4145809
 0.4145442
 0.4145609
 0.4145357
 0.4144927
 0.4144912
 0.4144956
 0.4145090
 0.4145145
 0.4145145
 0.4145090
 0.4144956
 0.4144912
 0.4144927
 0.4145357
 0.4145609
 0.4145442
 0.4145809
 0.4144767
 0.3817554
 0.3816707
 0.3814930
 0.3814855
 0.3814584
 0.3814454
 0.3814679
 0.3814673
 0.3814601
 0.3814488
 0.3814488
 0.3814601
 0.3814673
 0.3814679
 0.3814454
 0.3814584
 0.3814855
 0.3814930
 0.3816707
 0.3817554
 0.3348325
 0.3345349
 0.3342833
 0.3342391
 0.3341895
 0.3341801
 0.3341941
 0.3341898
 0.3341731
 0.3341570
 0.3341570
 0.3341731
 0.3341898
 0.3341941
 0.3341801
 0.3341895
 0.3342391
 0.3342833
 0.3345349
 0.3348325
 0.2922686
 0.2919991
 0.2917891
 0.2917346
 0.2916832
 0.2916820
 0.2916885
 0.2916823
 0.2916734
 0.2916631
 0.2916631
 0.2916734
 0.2916823
 0.2916885
 0.2916820
 0.2916832
 0.2917346
 0.2917891
 0.2919991
 0.2922686
 0.2678195
 0.2679091
 0.2678577
 0.2678414
 0.2678240
 0.2678237
 0.2678292
 0.2678368
 0.2678407
 0.2678461
 0.2678461
 0.2678407
 0.2678368
 0.2678292
 0.2678237
 0.2678240
 0.2678414
 0.2678577
 0.2679091
 0.2678195
 0.2622633
 0.2625911
 0.2626294
 0.2626505
 0.2626558
 0.2626596
 0.2626657
 0.2626714
 0.2626752
 0.2626813
 0.2626813
 0.2626752
 0.2626714
 0.2626657
 0.2626596
 0.2626558
 0.2626505
 0.2626294
 0.2625911
 0.2622633
 0.2617590
 0.2621233
 0.2621760
 0.2621938
 0.2622022
 0.2622094
 0.2622157
 0.2622273
 0.2622332
 0.2622395
 0.2622395
 0.2622332
 0.2622273
 0.2622157
 0.2622094
 0.2622022
 0.2621938
 0.2621760
 0.2621233
 0.2617590
 0.2619020
 0.2622777
 0.2623292
 0.2623581
 0.2623703
 0.2623774
 0.2623810
 0.2623856
 0.2623854
 0.2623861
 0.2623861
 0.2623854
 0.2623856
 0.2623810
 0.2623774
 0.2623703
 0.2623581
 0.2623292
 0.2622777
 0.2619020
 0.2627521
 0.2631520
 0.2632036
 0.2632497
 0.2632714
 0.2632825
 0.2632817
 0.2632705
 0.2632632
 0.2632556
 0.2632556
 0.2632632
 0.2632705
 0.2632817
 0.2632825
 0.2632714
 0.2632497
 0.2632036
 0.2631520
 0.2627521
 0.2641449
 0.2645437
 0.2645980
 0.2646601
 0.2646966
 0.2647178
 0.2647261
 0.2647174
 0.2647075
 0.2646958
 0.2646958
 0.2647075
 0.2647174
 0.2647261
 0.2647178
 0.2646966
 0.2646601
 0.2645980
 0.2645437
 0.2641449
 0.2651691
 0.2655238
 0.2655585
 0.2655971
 0.2656232
 0.2656509
 0.2656475
 0.2656411
 0.2656215
 0.2656069
 0.2656069
 0.2656215
 0.2656411
 0.2656475
 0.2656509
 0.2656232
 0.2655971
 0.2655585
 0.2655238
 0.2651691
 0.2655723
 0.2658781
 0.2659022
 0.2659316
 0.2659503
 0.2659686
 0.2660004
 0.2660330
 0.2660622
 0.2660683
 0.2660683
 0.2660622
 0.2660330
 0.2660004
 0.2659686
 0.2659503
 0.2659316
 0.2659022
 0.2658781
 0.2655723
 0.2656840
 0.2659886
 0.2660173
 0.2660477
 0.2660683
 0.2660850
 0.2660991
 0.2661086
 0.2661141
 0.2661129
 0.2661129
 0.2661141
 0.2661086
 0.2660991
 0.2660850
 0.2660683
 0.2660477
 0.2660173
 0.2659886
 0.2656840
 0.2656344
 0.2659360
 0.2659645
 0.2659882
 0.2660009
 0.2660126
 0.2660300
 0.2660411
 0.2660537
 0.2660569
 0.2660569
 0.2660537
 0.2660411
 0.2660300
 0.2660126
 0.2660009
 0.2659882
 0.2659645
 0.2659360
 0.2656344
 0.2656333
 0.2659285
 0.2659543
 0.2659787
 0.2659889
 0.2660039
 0.2660221
 0.2660368
 0.2660479
 0.2660536
 0.2660536
 0.2660479
 0.2660368
 0.2660221
 0.2660039
 0.2659889
 0.2659787
 0.2659543
 0.2659285
 0.2656333
 0.2654572
 0.2657267
 0.2657462
 0.2657692
 0.2657864
 0.2658048
 0.2658199
 0.2658292
 0.2658336
 0.2658382
 0.2658382
 0.2658336
 0.2658292
 0.2658199
 0.2658048
 0.2657864
 0.2657692
 0.2657462
 0.2657267
 0.2654572
 0.2647945
 0.2650225
 0.2650273
 0.2650530
 0.2650727
 0.2650901
 0.2650961
 0.2650994
 0.2650946
 0.2650973
 0.2650973
 0.2650946
 0.2650994
 0.2650961
 0.2650901
 0.2650727
 0.2650530
 0.2650273
 0.2650225
 0.2647945
 0.2613829
 0.2614994
 0.2615123
 0.2615322
 0.2615498
 0.2615640
 0.2615647
 0.2615636
 0.2615526
 0.2615521
 0.2615521
 0.2615526
 0.2615636
 0.2615647
 0.2615640
 0.2615498
 0.2615322
 0.2615123
 0.2614994
 0.2613829
 0.2393759
 0.2392523
 0.2392949
 0.2393110
 0.2393290
 0.2393370
 0.2393398
 0.2393394
 0.2393377
 0.2393389
 0.2393389
 0.2393377
 0.2393394
 0.2393398
 0.2393370
 0.2393290
 0.2393110
 0.2392949
 0.2392523
 0.2393759
 0.1717259
 0.1714657
 0.1715441
 0.1715621
 0.1715754
 0.1715762
 0.1715832
 0.1715835
 0.1715926
 0.1715956
 0.1715956
 0.1715926
 0.1715835
 0.1715832
 0.1715762
 0.1715754
 0.1715621
 0.1715441
 0.1714657
 0.1717259
 0.1303096
 0.1302653
 0.1302845
 0.1302890
 0.1302915
 0.1302911
 0.1302922
 0.1302916
 0.1302932
 0.1302935
 0.1302935
 0.1302932
 0.1302916
 0.1302922
 0.1302911
 0.1302915
 0.1302890
 0.1302845
 0.1302653
 0.1303096
 0.1253200
 0.1253191
 0.1253204
 0.1253207
 0.1253209
 0.1253208
 0.1253209
 0.1253208
 0.1253208
 0.1253208
 0.1253208
 0.1253208
 0.1253208
 0.1253209
 0.1253208
 0.1253209
 0.1253207
 0.1253204
 0.1253191
 0.1253200
 0.1250188
 0.1250188
 0.1250189
 0.1250189
 0.1250189
 0.1250189
 0.1250189
 0.1250189
 0.1250189
 0.1250189
 0.1250189
 0.1250189
 0.1250189
 0.1250189
 0.1250189
 0.1250189
 0.1250189
 0.1250189
 0.1250188
 0.1250188
 0.1250011
 0.1250011
 0.1250011
 0.1250011
 0.1250011
 0.1250011
 0.1250011
 0.1250011
 0.1250011
 0.1250011
 0.1250011
 0.1250011
 0.1250011
 0.1250011
 0.1250011
 0.1250011
 0.1250011
 0.1250011
 0.1250011
 0.1250011
 0.1250001
 0.1250001
 0.1250001
 0.1250001
 0.1250001
 0.1250001
 0.1250001
 0.1250001
 0.1250001
 0.1250001
 0.1250001
 0.1250001