# vtk DataFile Version 3.0
CELLCENTER
ASCII
DATASET STRUCTURED_GRID
DIMENSIONS  20 100   1
POINTS      2000 float
  -0.0950   -0.4950    0.0000
  -0.0850   -0.4950    0.0000
  -0.0750   -0.4950    0.0000
  -0.0650   -0.4950    0.0000
  -0.0550   -0.4950    0.0000
  -0.0450   -0.4950    0.0000
  -0.0350   -0.4950    0.0000
  -0.0250   -0.4950    0.0000
  -0.0150   -0.4950    0.0000
  -0.0050   -0.4950    0.0000
   0.0050   -0.4950    0.0000
   0.0150   -0.4950    0.0000
   0.0250   -0.4950    0.0000
   0.0350   -0.4950    0.0000
   0.0450   -0.4950    0.0000
   0.0550   -0.4950    0.0000
   0.0650   -0.4950    0.0000
   0.0750   -0.4950    0.0000
   0.0850   -0.4950    0.0000
   0.0950   -0.4950    0.0000
  -0.0950   -0.4850    0.0000
  -0.0850   -0.4850    0.0000
  -0.0750   -0.4850    0.0000
  -0.0650   -0.4850    0.0000
  -0.0550   -0.4850    0.0000
  -0.0450   -0.4850    0.0000
  -0.0350   -0.4850    0.0000
  -0.0250   -0.4850    0.0000
  -0.0150   -0.4850    0.0000
  -0.0050   -0.4850    0.0000
   0.0050   -0.4850    0.0000
   0.0150   -0.4850    0.0000
   0.0250   -0.4850    0.0000
   0.0350   -0.4850    0.0000
   0.0450   -0.4850    0.0000
   0.0550   -0.4850    0.0000
   0.0650   -0.4850    0.0000
   0.0750   -0.4850    0.0000
   0.0850   -0.4850    0.0000
   0.0950   -0.4850    0.0000
  -0.0950   -0.4750    0.0000
  -0.0850   -0.4750    0.0000
  -0.0750   -0.4750    0.0000
  -0.0650   -0.4750    0.0000
  -0.0550   -0.4750    0.0000
  -0.0450   -0.4750    0.0000
  -0.0350   -0.4750    0.0000
  -0.0250   -0.4750    0.0000
  -0.0150   -0.4750    0.0000
  -0.0050   -0.4750    0.0000
   0.0050   -0.4750    0.0000
   0.0150   -0.4750    0.0000
   0.0250   -0.4750    0.0000
   0.0350   -0.4750    0.0000
   0.0450   -0.4750    0.0000
   0.0550   -0.4750    0.0000
   0.0650   -0.4750    0.0000
   0.0750   -0.4750    0.0000
   0.0850   -0.4750    0.0000
   0.0950   -0.4750    0.0000
  -0.0950   -0.4650    0.0000
  -0.0850   -0.4650    0.0000
  -0.0750   -0.4650    0.0000
  -0.0650   -0.4650    0.0000
  -0.0550   -0.4650    0.0000
  -0.0450   -0.4650    0.0000
  -0.0350   -0.4650    0.0000
  -0.0250   -0.4650    0.0000
  -0.0150   -0.4650    0.0000
  -0.0050   -0.4650    0.0000
   0.0050   -0.4650    0.0000
   0.0150   -0.4650    0.0000
   0.0250   -0.4650    0.0000
   0.0350   -0.4650    0.0000
   0.0450   -0.4650    0.0000
   0.0550   -0.4650    0.0000
   0.0650   -0.4650    0.0000
   0.0750   -0.4650    0.0000
   0.0850   -0.4650    0.0000
   0.0950   -0.4650    0.0000
  -0.0950   -0.4550    0.0000
  -0.0850   -0.4550    0.0000
  -0.0750   -0.4550    0.0000
  -0.0650   -0.4550    0.0000
  -0.0550   -0.4550    0.0000
  -0.0450   -0.4550    0.0000
  -0.0350   -0.4550    0.0000
  -0.0250   -0.4550    0.0000
  -0.0150   -0.4550    0.0000
  -0.0050   -0.4550    0.0000
   0.0050   -0.4550    0.0000
   0.0150   -0.4550    0.0000
   0.0250   -0.4550    0.0000
   0.0350   -0.4550    0.0000
   0.0450   -0.4550    0.0000
   0.0550   -0.4550    0.0000
   0.0650   -0.4550    0.0000
   0.0750   -0.4550    0.0000
   0.0850   -0.4550    0.0000
   0.0950   -0.4550    0.0000
  -0.0950   -0.4450    0.0000
  -0.0850   -0.4450    0.0000
  -0.0750   -0.4450    0.0000
  -0.0650   -0.4450    0.0000
  -0.0550   -0.4450    0.0000
  -0.0450   -0.4450    0.0000
  -0.0350   -0.4450    0.0000
  -0.0250   -0.4450    0.0000
  -0.0150   -0.4450    0.0000
  -0.0050   -0.4450    0.0000
   0.0050   -0.4450    0.0000
   0.0150   -0.4450    0.0000
   0.0250   -0.4450    0.0000
   0.0350   -0.4450    0.0000
   0.0450   -0.4450    0.0000
   0.0550   -0.4450    0.0000
   0.0650   -0.4450    0.0000
   0.0750   -0.4450    0.0000
   0.0850   -0.4450    0.0000
   0.0950   -0.4450    0.0000
  -0.0950   -0.4350    0.0000
  -0.0850   -0.4350    0.0000
  -0.0750   -0.4350    0.0000
  -0.0650   -0.4350    0.0000
  -0.0550   -0.4350    0.0000
  -0.0450   -0.4350    0.0000
  -0.0350   -0.4350    0.0000
  -0.0250   -0.4350    0.0000
  -0.0150   -0.4350    0.0000
  -0.0050   -0.4350    0.0000
   0.0050   -0.4350    0.0000
   0.0150   -0.4350    0.0000
   0.0250   -0.4350    0.0000
   0.0350   -0.4350    0.0000
   0.0450   -0.4350    0.0000
   0.0550   -0.4350    0.0000
   0.0650   -0.4350    0.0000
   0.0750   -0.4350    0.0000
   0.0850   -0.4350    0.0000
   0.0950   -0.4350    0.0000
  -0.0950   -0.4250    0.0000
  -0.0850   -0.4250    0.0000
  -0.0750   -0.4250    0.0000
  -0.0650   -0.4250    0.0000
  -0.0550   -0.4250    0.0000
  -0.0450   -0.4250    0.0000
  -0.0350   -0.4250    0.0000
  -0.0250   -0.4250    0.0000
  -0.0150   -0.4250    0.0000
  -0.0050   -0.4250    0.0000
   0.0050   -0.4250    0.0000
   0.0150   -0.4250    0.0000
   0.0250   -0.4250    0.0000
   0.0350   -0.4250    0.0000
   0.0450   -0.4250    0.0000
   0.0550   -0.4250    0.0000
   0.0650   -0.4250    0.0000
   0.0750   -0.4250    0.0000
   0.0850   -0.4250    0.0000
   0.0950   -0.4250    0.0000
  -0.0950   -0.4150    0.0000
  -0.0850   -0.4150    0.0000
  -0.0750   -0.4150    0.0000
  -0.0650   -0.4150    0.0000
  -0.0550   -0.4150    0.0000
  -0.0450   -0.4150    0.0000
  -0.0350   -0.4150    0.0000
  -0.0250   -0.4150    0.0000
  -0.0150   -0.4150    0.0000
  -0.0050   -0.4150    0.0000
   0.0050   -0.4150    0.0000
   0.0150   -0.4150    0.0000
   0.0250   -0.4150    0.0000
   0.0350   -0.4150    0.0000
   0.0450   -0.4150    0.0000
   0.0550   -0.4150    0.0000
   0.0650   -0.4150    0.0000
   0.0750   -0.4150    0.0000
   0.0850   -0.4150    0.0000
   0.0950   -0.4150    0.0000
  -0.0950   -0.4050    0.0000
  -0.0850   -0.4050    0.0000
  -0.0750   -0.4050    0.0000
  -0.0650   -0.4050    0.0000
  -0.0550   -0.4050    0.0000
  -0.0450   -0.4050    0.0000
  -0.0350   -0.4050    0.0000
  -0.0250   -0.4050    0.0000
  -0.0150   -0.4050    0.0000
  -0.0050   -0.4050    0.0000
   0.0050   -0.4050    0.0000
   0.0150   -0.4050    0.0000
   0.0250   -0.4050    0.0000
   0.0350   -0.4050    0.0000
   0.0450   -0.4050    0.0000
   0.0550   -0.4050    0.0000
   0.0650   -0.4050    0.0000
   0.0750   -0.4050    0.0000
   0.0850   -0.4050    0.0000
   0.0950   -0.4050    0.0000
  -0.0950   -0.3950    0.0000
  -0.0850   -0.3950    0.0000
  -0.0750   -0.3950    0.0000
  -0.0650   -0.3950    0.0000
  -0.0550   -0.3950    0.0000
  -0.0450   -0.3950    0.0000
  -0.0350   -0.3950    0.0000
  -0.0250   -0.3950    0.0000
  -0.0150   -0.3950    0.0000
  -0.0050   -0.3950    0.0000
   0.0050   -0.3950    0.0000
   0.0150   -0.3950    0.0000
   0.0250   -0.3950    0.0000
   0.0350   -0.3950    0.0000
   0.0450   -0.3950    0.0000
   0.0550   -0.3950    0.0000
   0.0650   -0.3950    0.0000
   0.0750   -0.3950    0.0000
   0.0850   -0.3950    0.0000
   0.0950   -0.3950    0.0000
  -0.0950   -0.3850    0.0000
  -0.0850   -0.3850    0.0000
  -0.0750   -0.3850    0.0000
  -0.0650   -0.3850    0.0000
  -0.0550   -0.3850    0.0000
  -0.0450   -0.3850    0.0000
  -0.0350   -0.3850    0.0000
  -0.0250   -0.3850    0.0000
  -0.0150   -0.3850    0.0000
  -0.0050   -0.3850    0.0000
   0.0050   -0.3850    0.0000
   0.0150   -0.3850    0.0000
   0.0250   -0.3850    0.0000
   0.0350   -0.3850    0.0000
   0.0450   -0.3850    0.0000
   0.0550   -0.3850    0.0000
   0.0650   -0.3850    0.0000
   0.0750   -0.3850    0.0000
   0.0850   -0.3850    0.0000
   0.0950   -0.3850    0.0000
  -0.0950   -0.3750    0.0000
  -0.0850   -0.3750    0.0000
  -0.0750   -0.3750    0.0000
  -0.0650   -0.3750    0.0000
  -0.0550   -0.3750    0.0000
  -0.0450   -0.3750    0.0000
  -0.0350   -0.3750    0.0000
  -0.0250   -0.3750    0.0000
  -0.0150   -0.3750    0.0000
  -0.0050   -0.3750    0.0000
   0.0050   -0.3750    0.0000
   0.0150   -0.3750    0.0000
   0.0250   -0.3750    0.0000
   0.0350   -0.3750    0.0000
   0.0450   -0.3750    0.0000
   0.0550   -0.3750    0.0000
   0.0650   -0.3750    0.0000
   0.0750   -0.3750    0.0000
   0.0850   -0.3750    0.0000
   0.0950   -0.3750    0.0000
  -0.0950   -0.3650    0.0000
  -0.0850   -0.3650    0.0000
  -0.0750   -0.3650    0.0000
  -0.0650   -0.3650    0.0000
  -0.0550   -0.3650    0.0000
  -0.0450   -0.3650    0.0000
  -0.0350   -0.3650    0.0000
  -0.0250   -0.3650    0.0000
  -0.0150   -0.3650    0.0000
  -0.0050   -0.3650    0.0000
   0.0050   -0.3650    0.0000
   0.0150   -0.3650    0.0000
   0.0250   -0.3650    0.0000
   0.0350   -0.3650    0.0000
   0.0450   -0.3650    0.0000
   0.0550   -0.3650    0.0000
   0.0650   -0.3650    0.0000
   0.0750   -0.3650    0.0000
   0.0850   -0.3650    0.0000
   0.0950   -0.3650    0.0000
  -0.0950   -0.3550    0.0000
  -0.0850   -0.3550    0.0000
  -0.0750   -0.3550    0.0000
  -0.0650   -0.3550    0.0000
  -0.0550   -0.3550    0.0000
  -0.0450   -0.3550    0.0000
  -0.0350   -0.3550    0.0000
  -0.0250   -0.3550    0.0000
  -0.0150   -0.3550    0.0000
  -0.0050   -0.3550    0.0000
   0.0050   -0.3550    0.0000
   0.0150   -0.3550    0.0000
   0.0250   -0.3550    0.0000
   0.0350   -0.3550    0.0000
   0.0450   -0.3550    0.0000
   0.0550   -0.3550    0.0000
   0.0650   -0.3550    0.0000
   0.0750   -0.3550    0.0000
   0.0850   -0.3550    0.0000
   0.0950   -0.3550    0.0000
  -0.0950   -0.3450    0.0000
  -0.0850   -0.3450    0.0000
  -0.0750   -0.3450    0.0000
  -0.0650   -0.3450    0.0000
  -0.0550   -0.3450    0.0000
  -0.0450   -0.3450    0.0000
  -0.0350   -0.3450    0.0000
  -0.0250   -0.3450    0.0000
  -0.0150   -0.3450    0.0000
  -0.0050   -0.3450    0.0000
   0.0050   -0.3450    0.0000
   0.0150   -0.3450    0.0000
   0.0250   -0.3450    0.0000
   0.0350   -0.3450    0.0000
   0.0450   -0.3450    0.0000
   0.0550   -0.3450    0.0000
   0.0650   -0.3450    0.0000
   0.0750   -0.3450    0.0000
   0.0850   -0.3450    0.0000
   0.0950   -0.3450    0.0000
  -0.0950   -0.3350    0.0000
  -0.0850   -0.3350    0.0000
  -0.0750   -0.3350    0.0000
  -0.0650   -0.3350    0.0000
  -0.0550   -0.3350    0.0000
  -0.0450   -0.3350    0.0000
  -0.0350   -0.3350    0.0000
  -0.0250   -0.3350    0.0000
  -0.0150   -0.3350    0.0000
[...]
POINT_DATA     2000
SCALARS rho float
LOOKUP_TABLE default
 1.0000000
 1.0000000
 1.0000000
 1.0000000
 1.0000000
 1.0000000
 1.0000000
 1.0000000
 1.0000000
 1.0000000
 1.0000000
 1.0000000
 1.0000000
 1.0000000
 1.0000000
 1.0000000
 1.0000000
 1.0000000
 1.0000000
 1.0000000
 1.0000000
 1.0000000
 1.0000000
 1.0000000
 1.0000000
 1.0000000
 1.0000000
 1.0000000
 1.0000000
 1.0000000
 1.0000000
 1.0000000
 1.0000000
 1.0000000
 1.0000000
 1.0000000
 1.0000000
 1.0000000
 1.0000000
 1.0000000
 1.0000000
 1.0000000
 1.0000000
 1.0000000
 1.0000000
 1.0000000
 1.0000000
 1.0000000
 1.0000000
 1.0000000
 1.0000000
 1.0000000
 1.0000000
 1.0000000
 1.0000000
 1.0000000
 1.0000000
 1.0000000
 1.0000000
 1.0000000
 1.0000000
 1.0000000
 1.0000000
 1.0000000
 1.0000000
 1.0000000
 1.0000000
 1.0000000
 1.0000000
 1.0000000
 1.0000000
 1.0000000
 1.0000000
 1.0000000
 1.0000000
 1.0000000
 1.0000000
 1.0000000
 1.0000000
 1.0000000
 1.0000000
 1.0000000
 1.0000000
 1.0000000
 1.0000000
 1.0000000
 1.0000000
 1.0000000
 1.0000000
 1.0000000
 1.0000000
 1.0000000
 1.0000000
 1.0000000
 1.0000000
 1.0000000
 1.0000000
 1.0000000
 1.0000000
 1.0000000
 1.0000000
 1.0000000
 1.0000000
 1.0000000
 1.0000000
 1.0000000
 1.0000000
 1.0000000
 1.0000000
 1.0000000
 1.0000000
 1.0000000
 1.0000000
 1.0000000
 1.0000000
 1.0000000
 1.0000000
 1.0000000
 1.0000000
 1.0000000
 1.0000000
 1.0000000
 1.0000000
 1.0000000
 1.0000000
 1.0000000
 1.0000000
 1.0000000
 1.0000000
 1.0000000
 1.0000000
 1.0000000
 1.0000000
 1.0000000
 1.0000000
 1.0000000
 1.0000000
 1.0000000
 1.0000000
 1.0000000
 1.0000000
 1.0000000
 1.0000000
 1.0000000
 1.0000000
 1.0000000
 1.0000000
 1.0000000
 1.0000000
 1.0000000
 1.0000000
 1.0000000
 1.0000000
 1.0000000
 1.0000000
 1.0000000
 1.0000000
 1.0000000
 1.0000000
 1.0000000
 1.0000000
 1.0000000
 1.0000000
 1.0000000
 1.0000000
 1.0000000
 1.0000000
 1.0000000
 1.0000000
 1.0000000
 1.0000000
 1.0000000
 1.0000000
 1.0000000
 1.0000000
 1.0000000
 1.0000000
 1.0000000
 1.0000000
 1.0000000
 1.0000000
 1.0000000
 1.0000000
 1.0000000
 1.0000000
 1.0000000
 1.0000000
 1.0000000
 1.0000000
 1.0000000
 1.0000000
 1.0000000
 1.0000000
 1.0000000
 1.0000000
 1.0000000
 1.0000000
 1.0000000
 1.0000000
 1.0000000
 1.0000000
 1.0000000
 1.0000000
 1.0000000
 1.0000000
 1.0000000
 1.0000000
 1.0000000
 1.0000000
 1.0000000
 1.0000000
 1.0000000
 1.0000000
 1.0000000
 1.0000000
 1.0000000
 1.0000000
 1.0000000
 1.0000000
 1.0000000
 1.0000000
 1.0000000
 1.0000000
 1.0000000
 1.0000000
 1.0000000
 1.0000000
 1.0000000
 1.0000000
 1.0000000
 1.0000000
 1.0000000
 1.0000000
 1.0000000
 1.0000000
 1.0000000
 1.0000000
 1.0000000
 1.0000000
 1.0000000
 1.0000000
 1.0000000
 1.0000000
 1.0000000
 1.0000000
 1.0000000
 1.0000000
 1.0000000
 1.0000000
 1.0000000
 1.0000000
 1.0000000
 1.0000000
 1.0000000
 1.0000000
 1.0000000
 1.0000000
 1.0000000
 1.0000000
 1.0000000
 1.0000000
 1.0000000
 1.0000000
 1.0000000
 1.0000000
 1.0000000
 1.0000000
 1.0000000
 1.0000000
 1.0000000
 1.0000000
 1.0000000
 1.0000000
 1.0000000
 1.0000000
 1.0000000
 1.0000000
 1.0000000
 1.0000000
 1.0000000
 1.0000000
 1.0000000
 1.0000000
 1.0000000
 1.0000000
 1.0000000
 1.0000000
 1.0000000
 1.0000000
 1.0000000
 1.0000000
 1.0000000
 1.0000000
 1.0000000
 1.0000000
 1.0000000
 1.0000000
 1.0000000
 1.0000000
 1.0000000
 1.0000000
 1.0000000
 1.0000000
 1.0000000
 1.0000000
 1.0000000
 1.0000000
 1.0000000
 1.0000000
 1.0000000
 1.0000000
 1.0000000
 1.0000000
 1.0000000
 1.0000000
 1.0000000
 1.0000000
 1.0000000
 1.0000000
 1.0000000
 1.0000000
 1.0000000
 1.0000000
 1.0000000
 1.0000000
 1.0000000
 1.0000000
 1.0000000
 1.0000000
 1.0000000
 1.0000000
 1.0000000
 1.0000000
 1.0000000
 1.0000000
 1.0000000
 1.0000000
 1.0000000
 1.0000000
 1.0000000
 1.0000000
 1.0000000
 1.0000000
 1.0000000
 1.0000000
 1.0000000
 1.0000000
 1.0000000
 1.0000000
 1.0000000
 1.0000000
 1.0000000
 1.0000000
 1.0000000
 1.0000000
 1.0000000
 1.0000000
 1.0000000
 1.0000000
 1.0000000
 1.0000000
 1.0000000
 1.0000000
 1.0000000
 1.0000000
 1.0000000
 1.0000000
 1.0000000
 1.0000000
 1.0000000
 1.0000000
 1.0000000
 1.0000000
 1.0000000
 1.0000000
 1.0000000
 1.0000000
 1.0000000
 1.0000000
 1.0000000
 1.0000000
 1.0000000
 1.0000000
 1.0000000
 1.0000000
 1.0000000
 1.0000000
 1.0000000
 1.0000000
 1.0000000
 1.0000000
 1.0000000
 1.0000000
 1.0000000
 1.0000000
 1.0000000
 1.0000000
 1.0000000
 1.0000000
 1.0000000
 1.0000000
 1.0000000
 1.0000000
 1.0000000
 1.0000000
 1.0000000
 1.0000000
 1.0000000
 1.0000000
 1.0000000
 1.0000000
 1.0000000
 1.0000000
 1.0000000
 1.0000000
 1.0000000
 1.0000000
 1.0000000
 1.0000000
 1.0000000
 1.0000000
 1.0000000
 1.0000000
 1.0000000
 1.0000000
 1.0000000
 1.0000000
 1.0000000
 1.0000000
 1.0000000
 1.0000000
 1.0000000
 1.0000000
 1.0000000
 1.0000000
 1.0000000
 1.0000000
 1.0000000
 1.0000000
 1.0000000
 1.0000000
 1.0000000
 1.0000000
 1.0000000
 1.0000000
 1.0000000
 1.0000000
 1.0000000
 1.0000000
 1.0000000
 1.0000000
 1.0000000
 1.0000000
 1.0000000
 1.0000000
 1.0000000
 1.0000000
 1.0000000
 1.0000000
 1.0000000
 1.0000000
 1.0000000
 1.0000000
 1.0000000
 1.0000000
 1.0000000
 1.0000000
 1.0000000
 1.0000000
 1.0000000
 1.0000000
 1.0000000
 1.0000000
 1.0000000
 1.0000000
 1.0000000
 1.0000000
 1.0000000
 1.0000000
 1.0000000
 1.0000000
 1.0000000
 1.0000000
 1.0000000
 1.0000000
 1.0000000
 1.0000000
 1.0000000
 1.0000000
 1.0000000
 1.0000000
 1.0000000
 1.0000000
 1.0000000
 1.0000000
 1.0000000
 1.0000000
 1.0000000
 1.0000000
 1.0000000
 1.0000000
 1.0000000
 1.0000000
 1.0000000
 1.0000000
 1.0000000
 1.0000000
 1.0000000
 1.0000000
 1.0000000
 1.0000000
 1.0000000
 1.0000000
 1.0000000
 1.0000000
 1.0000000
 1.0000000
 1.0000000
 1.0000000
 1.0000000
 1.0000000
 1.0000000
 1.0000000
 1.0000000
 1.0000000
 1.0000000
 1.0000000
 1.0000000
 1.0000000
 1.0000000
 1.0000000
 1.0000000
 1.0000000
 1.0000000
 1.0000000
 1.0000000
 1.0000000
 1.0000000
 1.0000000
 1.0000000
 1.0000000
 1.0000000
 1.0000000
 1.0000000
 1.0000000
 1.0000000
 1.0000000
 1.0000000
 1.0000000
 1.0000000
 1.0000000
 1.0000000
 1.0000000
 1.0000000
 1.0000000
 1.0000000
 1.0000000
 1.0000000
 1.0000000
 1.0000000
 1.0000000
 1.0000000
 1.0000000
 1.0000000
 1.0000000
 1.0000000
 1.0000000
 1.0000000
 1.0000000
 1.0000000
 1.0000000
 1.0000000
 1.0000000
 1.0000000
 1.0000000
 1.0000000
 1.0000000
 1.0000000
 1.0000000
 1.0000000
 1.0000000
 1.0000000
 1.0000000
 1.0000000
 1.0000000
 1.0000000
 1.0000000
 1.0000000
 1.0000000
 1.0000000
 1.0000000
 1.0000000
 1.0000000
 1.0000000
 1.0000000
 1.0000000
 1.0000000
 1.0000000
 1.0000000
 1.0000000
 1.0000000
 1.0000000
 1.0000000
 1.0000000
 1.0000000
 1.0000000
 1.0000000
 1.0000000
 1.0000000
 1.0000000
 1.0000000
 1.0000000
 1.0000000
 1.0000000
 1.0000000
 1.0000000
 1.0000000
 1.0000000
 1.0000000
 1.0000000
 1.0000000
 1.0000000
 1.0000000
 1.0000000
 1.0000000
 1.0000000
 1.0000000
 1.0000000
 1.0000000
 1.0000000
 1.0000000
 1.0000000
 1.0000000
 1.0000000
 1.0000000
 1.0000000
 1.0000000
 1.0000000
 1.0000000
 1.0000000
 1.0000000
 1.0000000
 1.0000000
 1.0000000
 1.0000000
 1.0000000
 1.0000000
 1.0000000
 1.0000000
 1.0000000
 1.0000000
 1.0000000
 1.0000000
 1.0000000
 1.0000000
 1.0000000
 1.0000000
 1.0000000
 1.0000000
 1.0000000
 1.0000000
 1.0000000
 1.0000000
 1.0000000
 1.0000000
 1.0000000
 1.0000000
 1.0000000
 1.0000000
 1.0000000
 1.0000000
 1.0000000
 1.0000000
 1.0000000
 1.0000000
 1.0000000
 1.0000000
 1.0000000
 1.0000000
 1.0000000
 0.9999998
 0.9999998
 0.9999998
 0.9999998
 0.9999998
 0.9999998
 0.9999998
 0.9999998
 0.9999998
 0.9999998
 0.9999998
 0.9999998
 0.9999998
 0.9999998
 0.9999998
 0.9999998
 0.9999998
 0.9999998
 0.9999998
 0.9999998
 0.9999988
 0.9999988
 0.9999987
 0.9999987
 0.9999987
 0.9999987
 0.9999987
 0.9999987
 0.9999987
 0.9999987
 0.9999987
 0.9999987
 0.9999987
 0.9999987
 0.9999987
 0.9999987
 0.9999987
 0.9999987
 0.9999988
 0.9999988
 0.9999915
 0.9999913
 0.9999912
 0.9999911
 0.9999911
 0.9999911
 0.9999911
 0.9999911
 0.9999911
 0.9999911
 0.9999911
 0.9999911
 0.9999911
 0.9999911
 0.9999911
 0.9999911
 0.9999911
 0.9999912
 0.9999913
 0.9999915
 0.9999436
 0.9999426
 0.9999417
 0.9999413
 0.9999411
 0.9999410
 0.9999410
 0.9999410
 0.9999410
 0.9999410
 0.9999410
 0.9999410
 0.9999410
 0.9999410
 0.9999410
 0.9999411
 0.9999413
 0.9999417
 0.9999426
 0.9999436
 0.9996489
 0.9996433
 0.9996382
 0.9996355
 0.9996341
 0.9996337
 0.9996336
 0.9996336
 0.9996336
 0.9996336
 0.9996336
 0.9996336
 0.9996336
 0.9996336
 0.9996337
 0.9996341
 0.9996355
 0.9996382
 0.9996433
 0.9996489
 0.9979363
 0.9979060
 0.9978772
 0.9978614
 0.9978533
 0.9978503
 0.9978498
 0.9978497
 0.9978497
 0.9978497
 0.9978497
 0.9978497
 0.9978497
 0.9978498
 0.9978503
 0.9978533
 0.9978614
 0.9978772
 0.9979060
 0.9979363
 0.9884328
 0.9882838
 0.9881333
 0.9880475
 0.9880017
 0.9879836
 0.9879804
 0.9879802
 0.9879801
 0.9879801
 0.9879801
 0.9879801
 0.9879802
 0.9879804
 0.9879836
 0.9880017
 0.9880475
 0.9881333
 0.9882838
 0.9884328
 0.9557129
 0.9554894
 0.9551882
 0.9549911
 0.9548600
 0.9547934
 0.9547720
 0.9547686
 0.9547681
 0.9547681
 0.9547681
 0.9547681
 0.9547686
 0.9547720
 0.9547934
 0.9548600
 0.9549911
 0.9551882
 0.9554894
 0.9557129
 0.9005925
 0.9004840
 0.9002008
 0.8999600
 0.8997456
 0.8996092
 0.8995433
 0.8995283
 0.8995259
 0.8995255
 0.8995255
 0.8995259
 0.8995283
 0.8995433
 0.8996092
 0.8997456
 0.8999600
 0.9002008
 0.9004840
 0.9005925
 0.8320207
 0.8320366
 0.8318905
 0.8317217
 0.8314719
 0.8312726
 0.8311475
 0.8311042
 0.8310967
 0.8310955
 0.8310955
 0.8310967
 0.8311042
 0.8311475
 0.8312726
 0.8314719
 0.8317217
 0.8318905
 0.8320366
 0.8320207
 0.7589142
 0.7590173
 0.7590043
 0.7589809
 0.7587890
 0.7585627
 0.7583827
 0.7582944
 0.7582758
 0.7582729
 0.7582729
 0.7582758
 0.7582944
 0.7583827
 0.7585627
 0.7587890
 0.7589809
 0.7590043
 0.7590173
 0.7589142
 0.6868650
 0.6870478
 0.6871461
 0.6872104
 0.6871314
 0.6869441
 0.6867322
 0.6865957
 0.6865554
 0.6865491
 0.6865491
 0.6865554
 0.6865957
 0.6867322
 0.6869441
 0.6871314
 0.6872104
 0.6871461
 0.6870478
 0.6868650
 0.6186370
 0.6188860
 0.6190541
 0.6191682
 0.6191829
 0.6190854
 0.6188787
 0.6187063
 0.6186349
 0.6186231
 0.6186231
 0.6186349
 0.6187063
 0.6188787
 0.6190854
 0.6191829
 0.6191682
 0.6190541
 0.6188860
 0.6186370
 0.5547201
 0.5549493
 0.5551018
 0.5552786
 0.5553309
 0.5553172
 0.5551606
 0.5549735
 0.5548696
 0.5548483
 0.5548483
 0.5548696
 0.5549735
 0.5551606
 0.5553172
 0.5553309
 0.5552786
 0.5551018
 0.5549493
 0.5547201
 0.4997272
 0.5000703
 0.5002841
 0.5006022
 0.5007578
 0.5007925
 0.5007022
 0.5005251
 0.5003948
 0.5003587
 0.5003587
 0.5003948
 0.5005251
 0.5007022
 0.5007925
 0.5007578
 0.5006022
 0.5002841
 0.5000703
 0.4997272
 0.4489286
 0.4489965
 0.4490672
 0.4492688
 0.4494614
 0.4495164
 0.4494844
 0.4493494
 0.4492132
 0.4491636
 0.4491636
 0.4492132
 0.4493494
 0.4494844
 0.4495164
 0.4494614
 0.4492688
 0.4490672
 0.4489965
 0.4489286
 0.4216776
 0.4216248
 0.4217555
 0.4219540
 0.4223440
 0.4225788
 0.4226102
 0.4225314
 0.4224012
 0.4223252
 0.4223252
 0.4224012
 0.4225314
 0.4226102
 0.4225788
 0.4223440
 0.4219540
 0.4217555
 0.4216248
 0.4216776
 0.4296611
 0.4295162
 0.4294956
 0.4295894
 0.4298701
 0.4302634
 0.4303670
 0.4303283
 0.4301955
 0.4301130
 0.4301130
 0.4301955
 0.4303283
 0.4303670
 0.4302634
 0.4298701
 0.4295894
 0.4294956
 0.4295162
 0.4296611
 0.4336692
 0.4339109
 0.4340342
 0.4340329
 0.4340424
 0.4340569
 0.4342421
 0.4343220
 0.4343487
 0.4343159
 0.4343159
 0.4343487
 0.4343220
 0.4342421
 0.4340569
 0.4340424
 0.4340329
 0.4340342
 0.4339109
 0.4336692
 0.4339715
 0.4342108
 0.4343547
 0.4343887
 0.4344088
 0.4344390
 0.4345518
 0.4346163
 0.4346269
 0.4346093
 0.4346093
 0.4346269
 0.4346163
 0.4345518
 0.4344390
 0.4344088
 0.4343887
 0.4343547
 0.4342108
 0.4339715
 0.4258123
 0.4259176
 0.4259135
 0.4259052
 0.4258829
 0.4259121
 0.4259535
 0.4259765
 0.4259821
 0.4259888
 0.4259888
 0.4259821
 0.4259765
 0.4259535
 0.4259121
 0.4258829
 0.4259052
 0.4259135
 0.4259176
 0.4258123
 0.3870741
 0.3868319
 0.3864527
 0.3862794
 0.3861545
 0.3860963
 0.3860401
 0.3860318
 0.3860765
 0.3861343
 0.3861343
 0.3860765
 0.3860318
 0.3860401
 0.3860963
 0.3861545
 0.3862794
 0.3864527
 0.3868319
 0.3870741
 0.3272064
 0.3269588
 0.3265967
 0.3264079
 0.3262917
 0.3262115
 0.3261600
 0.3261485
 0.3261834
 0.3262299
 0.3262299
 0.3261834
 0.3261485
 0.3261600
 0.3262115
 0.3262917
 0.3264079
 0.3265967
 0.3269588
 0.3272064
 0.2820104
 0.2819895
 0.2817920
 0.2816550
 0.2815381
 0.2814625
 0.2814260
 0.2814183
 0.2814508
 0.2814955
 0.2814955
 0.2814508
 0.2814183
 0.2814260
 0.2814625
 0.2815381
 0.2816550
 0.2817920
 0.2819895
 0.2820104
 0.2630395
 0.2631559
 0.2630823
 0.2629875
 0.2628832
 0.2628184
 0.2628024
 0.2628201
 0.2628584
 0.2628991
 0.2628991
 0.2628584
 0.2628201
 0.2628024
 0.2628184
 0.2628832
 0.2629875
 0.2630823
 0.2631559
 0.2630395
 0.2591348
 0.2594182
 0.2593864
 0.2593200
 0.2592155
 0.2591414
 0.2591154
 0.2591378
 0.2591876
 0.2592310
 0.2592310
 0.2591876
 0.2591378
 0.2591154
 0.2591414
 0.2592155
 0.2593200
 0.2593864
 0.2594182
 0.2591348
 0.2576660
 0.2579318
 0.2579229
 0.2578870
 0.2578168
 0.2577647
 0.2577499
 0.2577817
 0.2578426
 0.2578901
 0.2578901
 0.2578426
 0.2577817
 0.2577499
 0.2577647
 0.2578168
 0.2578870
 0.2579229
 0.2579318
 0.2576660
 0.2496375
 0.2497943
 0.2498424
 0.2498539
 0.2498693
 0.2498873
 0.2499221
 0.2499823
 0.2500554
 0.2501031
 0.2501031
 0.2500554
 0.2499823
 0.2499221
 0.2498873
 0.2498693
 0.2498539
 0.2498424
 0.2497943
 0.2496375
 0.1987298
 0.1986086
 0.1987620
 0.1989319
 0.1991385
 0.1993240
 0.1994911
 0.1996170
 0.1996931
 0.1997209
 0.1997209
 0.1996931
 0.1996170
 0.1994911
 0.1993240
 0.1991385
 0.1989319
 0.1987620
 0.1986086
 0.1987298
 0.1386382
 0.1386009
 0.1386787
 0.1387665
 0.1388670
 0.1389550
 0.1390270
 0.1390730
 0.1390934
 0.1390974
 0.1390974
 0.1390934
 0.1390730
 0.1390270
 0.1389550
 0.1388670
 0.1387665
 0.1386787
 0.1386009
 0.1386382
 0.1258700
 0.1258709
 0.1258774
 0.1258845
 0.1258922
 0.1258987
 0.1259037
 0.1259067
 0.1259078
 0.1259080
 0.1259080
 0.1259078
 0.1259067
 0.1259037
 0.1258987
 0.1258922
 0.1258845
 0.1258774
 0.1258709
 0.1258700
 0.1250502
 0.1250505
 0.1250510
 0.1250514
 0.1250519
 0.1250522
 0.1250525
 0.1250527
 0.1250527
 0.1250527
 0.1250527
 0.1250527
 0.1250527
 0.1250525
 0.1250522
 0.1250519
 0.1250514
 0.1250510
 0.1250505
 0.1250502
 0.1250029
 0.1250029
 0.1250029
 0.1250030
 0.1250030
 0.1250030
 0.1250030
 0.1250030
 0.1250030
 0.1250030
 0.1250030
 0.1250030
 0.1250030
 0.1250030
 0.1250030
 0.1250030
 0.1250030
 0.1250029
 0.1250029
 0.1250029
 0.1250002
 0.1250002
 0.1250002
 0.1250002
 0.1250002
 0.1250002
 0.1250002
 0.1250002
 0.1250002
 0.1250002
 0.1250002
 0.1250002
 0.1250002
 0.1250002
 0.1250002
 0.1250002
 0.1250002
 0.1250002
 0.1250002
 0.1250002
 0.1250000
 0.1250000
 0.1250000
 0.1250000
 0.1250000
 0.1250000
 0.1250000
 0.1250000
 0.1250000
 0.1250000
 0.1250000
 0.1250000
 0.1250000
 0.1250000
 0.1250000
 0.1250000
 0.1250000
 0.1250000
 0.1250000
 0.1250000
 0.1250000
 0.1250000
 0.1250000
 0.1250000
 0.1250000
 0.1250000
 0.1250000
 0.1250000
 0.1250000
 0.1250000
 0.1250000
 0.1250000
 0.1250000
 0.1250000
 0.1250000
 0.1250000
 0.1250000
 0.1250000
 0.1250000
 0.1250000
 0.1250000
 0.1250000
 0.1250000
 0.1250000
 0.1250000
 0.1250000
 0.1250000
 0.1250000
 0.1250000
 0.1250000
 0.1250000
 0.1250000
 0.1250000
 0.1250000
 0.1250000
 0.1250000
 0.1250000
 0.1250000
 0.1250000
 0.1250000
 0.1250000
 0.1250000
 0.1250000
 0.1250000
 0.1250000
 0.1250000
 0.1250000
 0.1250000
 0.1250000
 0.1250000
 0.1250000
 0.1250000
 0.1250000
 0.1250000
 0.1250000
 0.1250000
 0.1250000
 0.1250000
 0.1250000
 0.1250000
 0.1250000
 0.1250000
 0.1250000
 0.1250000
 0.1250000
 0.1250000
 0.1250000
 0.1250000
 0.1250000
 0.1250000
 0.1250000
 0.1250000
 0.1250000
 0.1250000
 0.1250000
 0.1250000
 0.1250000
 0.1250000
 0.1250000
 0.1250000
 0.1250000
 0.1250000
 0.1250000
 0.1250000
 0.1250000
 0.1250000
 0.1250000
 0.1250000
 0.1250000
 0.1250000
 0.1250000
 0.1250000
 0.1250000
 0.1250000
 0.1250000
 0.1250000
 0.1250000
 0.1250000
 0.1250000
 0.1250000
 0.1250000
 0.1250000
 0.1250000
 0.1250000
 0.1250000
 0.1250000
 0.1250000
 0.1250000
 0.1250000
 0.1250000
 0.1250000
 0.1250000
 0.1250000
 0.1250000
 0.1250000
 0.1250000
 0.1250000
 0.1250000
 0.1250000
 0.1250000
 0.1250000
 0.1250000
 0.1250000
 0.1250000
 0.1250000
 0.1250000
 0.1250000
 0.1250000
 0.1250000
 0.1250000
 0.1250000
 0.1250000
 0.1250000
 0.1250000
 0.1250000
 0.1250000
 0.1250000
 0.1250000
 0.1250000
 0.1250000
 0.1250000
 0.1250000
 0.1250000
 0.1250000
 0.1250000
 0.1250000
 0.1250000
 0.1250000
 0.1250000
 0.1250000
 0.1250000
 0.1250000
 0.1250000
 0.1250000
 0.1250000
 0.1250000
 0.1250000
 0.1250000
 0.1250000
 0.1250000
 0.1250000
 0.1250000
 0.1250000
 0.1250000
 0.1250000
 0.1250000
 0.1250000
 0.1250000
 0.1250000
 0.1250000
 0.1250000
 0.1250000
 0.1250000
 0.1250000
 0.1250000
 0.1250000
 0.1250000
 0.1250000
 0.1250000
 0.1250000
 0.1250000
 0.1250000
 0.1250000
 0.1250000
 0.1250000
 0.1250000
 0.1250000
 0.1250000
 0.1250000
 0.1250000
 0.1250000
 0.1250000
 0.1250000
 0.1250000
 0.1250000
 0.1250000
 0.1250000
 0.1250000
 0.1250000
 0.1250000
 0.1250000
 0.1250000
 0.1250000
 0.1250000
 0.1250000
 0.1250000
 0.1250000
 0.1250000
 0.1250000
 0.1250000
 0.1250000
 0.1250000
 0.1250000
 0.1250000
 0.1250000
 0.1250000
 0.1250000
 0.1250000
 0.1250000
 0.1250000
 0.1250000
 0.1250000
 0.1250000
 0.1250000
 0.1250000
 0.1250000
 0.1250000
 0.1250000
 0.1250000
 0.1250000
 0.1250000
 0.1250000
 0.1250000
 0.1250000
 0.1250000
 0.1250000
 0.1250000
 0.1250000
 0.1250000
 0.1250000
 0.1250000
 0.1250000
 0.1250000
 0.1250000
 0.1250000
 0.1250000
 0.1250000
 0.1250000
 0.1250000
 0.1250000
 0.1250000
 0.1250000
 0.1250000
 0.1250000
 0.1250000
 0.1250000
 0.1250000
 0.1250000
 0.1250000
 0.1250000
 0.1250000
 0.1250000
 0.1250000
 0.1250000
 0.1250000
 0.1250000
 0.1250000
 0.1250000
 0.1250000
 0.1250000
 0.1250000
 0.1250000
 0.1250000
 0.1250000
 0.1250000
 0.1250000
 0.1250000
 0.1250000
 0.1250000
 0.1250000
 0.1250000
 0.1250000
 0.1250000
 0.1250000
 0.1250000
 0.1250000
 0.1250000
 0.1250000
 0.1250000
 0.1250000
 0.1250000
 0.1250000
 0.1250000
 0.1250000
 0.1250000
 0.1250000
 0.1250000
 0.1250000
 0.1250000
 0.1250000
 0.1250000
 0.1250000
 0.1250000
 0.1250000
 0.1250000
 0.1250000
 0.1250000
 0.1250000
 0.1250000
 0.1250000
 0.1250000
 0.1250000
 0.1250000
 0.1250000
 0.1250000
 0.1250000
 0.1250000
 0.1250000
 0.1250000
 0.1250000
 0.1250000
 0.1250000
 0.1250000
 0.1250000
 0.1250000
 0.1250000
 0.1250000
 0.1250000
 0.1250000
 0.1250000
 0.1250000
 0.1250000
 0.1250000
 0.1250000
 0.1250000
 0.1250000
 0.1250000
 0.1250000
 0.1250000
 0.1250000
 0.1250000
 0.1250000
 0.1250000
 0.1250000
 0.1250000
 0.1250000
 0.1250000
 0.1250000
 0.1250000
 0.1250000
 0.1250000
 0.1250000
 0.1250000
 0.1250000
 0.1250000
 0.1250000
 0.1250000
 0.1250000
 0.1250000
 0.1250000
 0.1250000
 0.1250000
 0.1250000
 0.1250000
 0.1250000
 0.1250000
 0.1250000
 0.1250000
 0.1250000
 0.1250000
 0.1250000
 0.1250000
 0.1250000
 0.1250000
 0.1250000
 0.1250000
 0.1250000
 0.1250000
 0.1250000
 0.1250000
 0.1250000
 0.1250000
 0.1250000
 0.1250000
 0.1250000
 0.1250000
 0.1250000
 0.1250000
 0.1250000
 0.1250000
 0.1250000
 0.1250000
 0.1250000
 0.1250000
 0.1250000
 0.1250000
 0.1250000
 0.1250000
 0.1250000
 0.1250000
 0.1250000
 0.1250000
 0.1250000
 0.1250000
 0.1250000
 0.1250000
 0.1250000
 0.1250000
 0.1250000
 0.1250000
 0.1250000
 0.1250000
 0.1250000
 0.1250000
 0.1250000
 0.1250000
 0.1250000
 0.1250000
 0.1250000
 0.1250000
 0.1250000
 0.1250000
 0.1250000
 0.1250000
 0.1250000
 0.1250000
 0.1250000
 0.1250000
 0.1250000
 0.1250000
 0.1250000
 0.1250000